Siesta Version: siesta-4.0--530
Architecture  : x86_64-unknown-linux-gnu--unknown
Compiler flags: /opt/spack/opt/spack/linux-centos7-x86_64/gcc-8.3.0/openmpi-3.1.3-zvzp4an3k2mmb7andyregxqllnueyg4jo/bin/mpif90 -g -O2
PP flags      : -DMPI -DFC_HAVE_FLUSH -DFC_HAVE_ABORT -DCDF 
PARALLEL version
NetCDF support

* Running on   32 nodes in parallel
>> Start of run:  10-APR-2024   5:03:27

                           ***********************       
                           *  WELCOME TO SIESTA  *       
                           ***********************       

reinit: Reading from standard input
************************** Dump of input data file ****************************
SystemName	geometry-13
SystemLabel	geometry-13
DM.MixingWeight	0.03
DM.NumberPulay	3
DM.Tolerance	1.d-4
DM.UseSaveDM	F
ElectronicTemperature	50 meV
MD.MaxForceTol	0.04 eV/Ang
MD.Steps	0
MD.TypeOfRun	CG
MD.UseSaveXV	F
MaxSCFIterations	500
MinSCFIterations	0
SCF.MustConverge	T
SaveDeltaRho	F
SaveElectrostaticPotential	F
SaveHS	F
SaveRho	F
SaveTotalPotential	F
SolutionMethod	diagon
Spin	non-polarized
Spin.Total	0
UseSaveData	F
WriteCoorStep	F
WriteCoorXmol	F
WriteEigenvalues	T
WriteForces	T
WriteHirshfeldPop	F
WriteKbands	F
WriteKpoints	F
WriteMDXmol	T
WriteMDhistory	F
WriteMullikenPop	0
WriteVoronoiPop	F
WriteWaveFunctions	F
SCFMustConverge	True
Spin     	non-polarized
XC.functional	GGA
XC.authors	PBE
MeshCutoff	9523.985108528535	eV
PAO.EnergyShift	0.1	eV
NumberOfSpecies	5
NumberOfAtoms	67
%block ChemicalSpecieslabel
    1 1 H.1
    2 8 O.2
    3 79 Au.gga.3
    4 79 Au.gga.4
    5 79 Au.gga.5
%endblock ChemicalSpecieslabel
%block PAO.Basis
H.1 2 0.46527
            n=1 0 2 E 99.93138 2.59932
            4.20357 1.84463
            n=2 1 1 E 24.56504 2.20231
            3.52816
O.2 3 -0.24233
            n=2 0 2 E 23.36061 3.39721
            4.50769 2.64066
            n=2 1 2 E 2.78334 5.14253
            6.14996 2.59356
            n=3 2 1 E 63.98188 0.16104
            3.54403
Au.gga.4 2
            n=6 0 2 P 1
            7.24700 5.71500
            n=5 2 2
            5.10700 2.83800
Au.gga.5 2
            n=6 0 2 P 1
            9.07500 5.78700
            n=5 2 2
            6.55700 2.87400
%endblock PAO.Basis
%block PAO.BasisSizes
    Au.gga.3	DZP
%endblock PAO.BasisSizes
LatticeConstant	1.0 Ang
%block LatticeVectors
    11.975725345373620     0.000000000000000     0.000000000000000
    0.000000000000000     10.371282377926580     0.000000000000000
    0.000000000000000     0.000000000000000     57.333623994331909
%endblock LatticeVectors
AtomicCoordinatesFormat  Ang
%block AtomicCoordinatesAndAtomicSpecies
    -0.008046403     -0.084380757     24.835992248 5
     2.966178027     -0.103134059     24.808342499 5
     5.920674589     -0.109912341     24.876095610 5
     8.902590301     -0.089527508     24.904210609 5
     1.483941127      2.466902143     24.781931831 5
     4.446450411      2.466190450     24.823320928 5
     7.418661183      2.477057191     24.893378856 5
    10.383253302      2.471539041     24.815102399 5
    -0.008021567      5.036102329     24.845781045 5
     2.968780655      5.047961468     24.788411500 5
     5.931351651      5.046445154     24.842109876 5
     8.897811739      5.037338944     24.924749298 5
     1.499214162      7.624127049     24.869312198 5
     4.446242086      7.621886531     24.792653249 5
     7.391983566      7.620782718     24.956926999 5
    10.372544611      7.619989622     24.923065969 5
     1.484001063      0.796550645     27.374446695 5
     4.435235409      0.801601162     27.403986264 5
     7.396554080      0.812248258     27.424033112 5
    10.372346552      0.828960469     27.415278123 5
    -0.012228395      3.349717132     27.333438216 5
     2.967441124      3.368552972     27.316441035 5
     5.925085076      3.374555051     27.384867790 5
     8.883027098      3.379737876     27.484501059 5
     1.477224084      5.940998545     27.339146481 5
     4.438165045      5.966467760     27.346577945 5
     7.408505414      5.947663646     27.453911803 5
    10.379879869      5.929872967     27.430223619 5
     0.030902803      8.536670966     27.353332740 5
     2.947614657      8.541670942     27.408812757 5
     5.899355691      8.520674127     27.470984333 5
     8.893266209      8.521650143     27.436073152 5
    -0.018168802      1.706971035     29.884303528 3
     2.938083588      1.690279673     29.853595379 3
     5.936706083      1.690344634     29.870591544 3
     8.918205583      1.665255478     29.958627417 3
     1.466161093      4.295551301     29.741801933 3
     4.437425672      4.284515428     29.796169181 3
     7.400231902      4.247755402     29.965593961 3
    10.373473437      4.239062518     29.910009714 3
    -0.033024290      6.840845455     29.829158974 3
     2.977442513      6.857107738     29.824844847 3
     5.927827241      6.818117050     29.926032223 3
     8.885525145      6.794039621     29.946442746 3
     1.444603143      9.415300441     29.945946137 3
     4.432557909      9.427506270     29.913212117 3
     7.432867786      9.383977594     29.920028819 3
    10.378093547      9.377231345     29.800775287 3
    -0.300600057     -0.084105647     32.346888590 3
     3.003353034      0.080875158     32.479578168 3
     5.899068363      0.064984316     32.515634421 3
     8.715521405      0.009393332     32.655157704 3
     1.576338284      2.967901988     32.173296046 3
     4.535402366      2.665324773     32.378109026 3
     7.458232341      2.608636394     32.576795129 3
    10.353960551      2.478795464     32.928706292 3
    -0.178064018      5.184946893     32.466025789 3
     3.083727410      5.360023504     32.430554922 3
     5.970435058      5.201423544     32.587160153 3
     8.847830316      5.104595406     32.726978934 3
     1.371990300      7.739657346     32.400855269 3
     4.404371593      7.856195696     32.570115727 3
     7.354240146      7.736376573     32.585389601 3
    10.257932168      7.669750995     32.624100105 3
     1.480511071      1.456427312     33.960914812 2
     1.749475169      1.796938187     34.848862289 1
    -0.031955697      1.406092582     33.687694161 1
%endblock AtomicCoordinatesAndAtomicSpecies
%block DM.InitSpin
%endblock DM.InitSpin
DM.UseSaveDM	True
#KPoint grid
%block kgrid_Monkhorst_Pack
     1       0       0  0.0
     0       1       0  0.0
     0       0       1  0.0
%endblock kgrid_Monkhorst_Pack
************************** End of input data file *****************************
*** WARNING:  FDF module: fdf_read: block DM.InitSpin is empty...

reinit: -----------------------------------------------------------------------
reinit: System Name: geometry-13
reinit: -----------------------------------------------------------------------
reinit: System Label: geometry-13                                                 
reinit: -----------------------------------------------------------------------

initatom: Reading input for the pseudopotentials and atomic orbitals ----------
 Species number:            1  Label: H.1 Atomic number:           1
 Species number:            2  Label: O.2 Atomic number:           8
 Species number:            3  Label: Au.gga.3 Atomic number:          79
 Species number:            4  Label: Au.gga.4 Atomic number:          79
 Species number:            5  Label: Au.gga.5 Atomic number:          79
Ground state valence configuration:   1s01
Reading pseudopotential information in formatted form from H.1.psf

Valence configuration for pseudopotential generation:
1s( 1.00) rc: 1.25
2p( 0.00) rc: 1.25
3d( 0.00) rc: 1.25
4f( 0.00) rc: 1.25
Ground state valence configuration:   2s02  2p04
Reading pseudopotential information in formatted form from O.2.psf

Valence configuration for pseudopotential generation:
2s( 2.00) rc: 1.14
2p( 4.00) rc: 1.14
3d( 0.00) rc: 1.14
4f( 0.00) rc: 1.14
Ground state valence configuration:   6s01  5d10
Reading pseudopotential information in formatted form from Au.gga.3.psf

Pseudopotential generated from a relativistic atomic calculation
There are spin-orbit pseudopotentials available
Spin-orbit interaction is not included in this calculation

Valence configuration for pseudopotential generation:
6s( 1.00) rc: 2.32
6p( 0.50) rc: 2.29
5d( 9.50) rc: 2.24
5f( 0.00) rc: 2.00
Ground state valence configuration:   6s01  5d10
Reading pseudopotential information in formatted form from Au.gga.4.psf

Pseudopotential generated from a relativistic atomic calculation
There are spin-orbit pseudopotentials available
Spin-orbit interaction is not included in this calculation

Valence configuration for pseudopotential generation:
6s( 1.00) rc: 2.32
6p( 0.50) rc: 2.29
5d( 9.50) rc: 2.24
5f( 0.00) rc: 2.00
Ground state valence configuration:   6s01  5d10
Reading pseudopotential information in formatted form from Au.gga.5.psf

Pseudopotential generated from a relativistic atomic calculation
There are spin-orbit pseudopotentials available
Spin-orbit interaction is not included in this calculation

Valence configuration for pseudopotential generation:
6s( 1.00) rc: 2.32
6p( 0.50) rc: 2.29
5d( 9.50) rc: 2.24
5f( 0.00) rc: 2.00
resizes: Read basis size for species Au.gga.3 = dzp                 
For H.1, standard SIESTA heuristics set lmxkb to 2
 (one more than the basis l, including polarization orbitals).
Use PS.lmax or PS.KBprojectors blocks to override.
For O.2, standard SIESTA heuristics set lmxkb to 3
 (one more than the basis l, including polarization orbitals).
Use PS.lmax or PS.KBprojectors blocks to override.
For Au.gga.3, standard SIESTA heuristics set lmxkb to 3
 (one more than the basis l, including polarization orbitals).
Use PS.lmax or PS.KBprojectors blocks to override.
For Au.gga.4, standard SIESTA heuristics set lmxkb to 3
 (one more than the basis l, including polarization orbitals).
Use PS.lmax or PS.KBprojectors blocks to override.
 Warning: Empty PAO shell. l =           1
 Will have a KB projector anyway...
For Au.gga.5, standard SIESTA heuristics set lmxkb to 3
 (one more than the basis l, including polarization orbitals).
Use PS.lmax or PS.KBprojectors blocks to override.
 Warning: Empty PAO shell. l =           1
 Will have a KB projector anyway...

<basis_specs>
===============================================================================
H.1                  Z=   1    Mass=  1.0100        Charge= 0.46527    
Lmxo=1 Lmxkb= 2    BasisType=split      Semic=F
L=0  Nsemic=0  Cnfigmx=1
          n=1  nzeta=2  polorb=0
            splnorm:   0.15000    
               vcte:    99.931    
               rinn:    2.5993    
               qcoe:    0.0000    
               qyuk:    0.0000    
               qwid:   0.10000E-01
                rcs:    4.2036      1.8446    
            lambdas:    1.0000      1.0000    
L=1  Nsemic=0  Cnfigmx=2
          n=1  nzeta=1  polorb=0
            splnorm:   0.15000    
               vcte:    24.565    
               rinn:    2.2023    
               qcoe:    0.0000    
               qyuk:    0.0000    
               qwid:   0.10000E-01
                rcs:    3.5282    
            lambdas:    1.0000    
-------------------------------------------------------------------------------
L=0  Nkbl=1  erefs: 0.17977+309
L=1  Nkbl=1  erefs: 0.17977+309
L=2  Nkbl=1  erefs: 0.17977+309
===============================================================================
</basis_specs>

atom: Called for H.1                   (Z =   1)

read_vps: Pseudopotential generation method:
read_vps: ATM3      Troullier-Martins                       
Total valence charge:    1.00000

xc_check: Exchange-correlation functional:
xc_check: GGA Perdew, Burke & Ernzerhof 1996
V l=0 = -2*Zval/r beyond r=  1.2343
V l=1 = -2*Zval/r beyond r=  1.2189
V l=2 = -2*Zval/r beyond r=  1.2189
All V_l potentials equal beyond r=  1.2343
This should be close to max(r_c) in ps generation
All pots = -2*Zval/r beyond r=  1.2343

VLOCAL1: 99.0% of the norm of Vloc inside     28.493 Ry
VLOCAL1: 99.9% of the norm of Vloc inside     64.935 Ry
atom: Maximum radius for 4*pi*r*r*local-pseudopot. charge    1.45251
atom: Maximum radius for r*vlocal+2*Zval:    1.21892
GHOST: No ghost state for L =  0
GHOST: No ghost state for L =  1
GHOST: No ghost state for L =  2

KBgen: Kleinman-Bylander projectors: 
   l= 0   rc=  1.364359   el= -0.477200   Ekb= -2.021939   kbcos= -0.344793
   l= 1   rc=  1.434438   el=  0.001076   Ekb= -0.443447   kbcos= -0.022843
   l= 2   rc=  1.470814   el=  0.002010   Ekb= -0.140543   kbcos= -0.002863

KBgen: Total number of  Kleinman-Bylander projectors:    9
atom: -------------------------------------------------------------------------

atom: SANKEY-TYPE ORBITALS:
atom: Selected multiple-zeta basis: split     

atom: basis set generated (by rescaling the valence charge)
atom: for a cation of charge   0.4653

SPLIT: Orbitals with angular momentum L= 0

SPLIT: Basis orbitals for state 1s

   izeta = 1
                 lambda =    1.000000
                     rc =    4.260636
                 energy =   -0.870244
                kinetic =    1.359204
    potential(screened) =   -2.229448
       potential(ionic) =   -2.289196

   izeta = 2
                 rmatch =    1.865767
              splitnorm =    0.575659
                 energy =    0.485405
                kinetic =    4.355632
    potential(screened) =   -3.870227
       potential(ionic) =   -3.839117

SPLIT: Orbitals with angular momentum L= 1

SPLIT: Basis orbitals for state 2p

   izeta = 1
                 lambda =    1.000000
                     rc =    3.576223
                 energy =    0.828629
                kinetic =    2.006518
    potential(screened) =   -1.177889
       potential(ionic) =   -1.299048
atom: Total number of Sankey-type orbitals:  5

atm_pop: Valence configuration (for local Pseudopot. screening):
 1s( 1.00)                                                            
 2p( 0.00)                                                            
Vna: chval, zval:    1.00000   1.00000

Vna:  Cut-off radius for the neutral-atom potential:   4.260636

atom: _________________________________________________________________________

<basis_specs>
===============================================================================
O.2                  Z=   8    Mass=  16.000        Charge=-0.24233    
Lmxo=2 Lmxkb= 3    BasisType=split      Semic=F
L=0  Nsemic=0  Cnfigmx=2
          n=1  nzeta=2  polorb=0
            splnorm:   0.15000    
               vcte:    23.361    
               rinn:    3.3972    
               qcoe:    0.0000    
               qyuk:    0.0000    
               qwid:   0.10000E-01
                rcs:    4.5077      2.6407    
            lambdas:    1.0000      1.0000    
L=1  Nsemic=0  Cnfigmx=2
          n=1  nzeta=2  polorb=0
            splnorm:   0.15000    
               vcte:    2.7833    
               rinn:    5.1425    
               qcoe:    0.0000    
               qyuk:    0.0000    
               qwid:   0.10000E-01
                rcs:    6.1500      2.5936    
            lambdas:    1.0000      1.0000    
L=2  Nsemic=0  Cnfigmx=3
          n=1  nzeta=1  polorb=0
            splnorm:   0.15000    
               vcte:    63.982    
               rinn:   0.16104    
               qcoe:    0.0000    
               qyuk:    0.0000    
               qwid:   0.10000E-01
                rcs:    3.5440    
            lambdas:    1.0000    
-------------------------------------------------------------------------------
L=0  Nkbl=1  erefs: 0.17977+309
L=1  Nkbl=1  erefs: 0.17977+309
L=2  Nkbl=1  erefs: 0.17977+309
L=3  Nkbl=1  erefs: 0.17977+309
===============================================================================
</basis_specs>

atom: Called for O.2                   (Z =   8)

read_vps: Pseudopotential generation method:
read_vps:  ATM3      Troullier-Martins                      
Total valence charge:    6.00000

read_vps: Pseudopotential includes a core correction:
read_vps: Pseudo-core for xc-correction

xc_check: Exchange-correlation functional:
xc_check: GGA Perdew, Burke & Ernzerhof 1996
V l=0 = -2*Zval/r beyond r=  1.1278
V l=1 = -2*Zval/r beyond r=  1.1278
V l=2 = -2*Zval/r beyond r=  1.1278
V l=3 = -2*Zval/r beyond r=  1.1278
All V_l potentials equal beyond r=  1.1278
This should be close to max(r_c) in ps generation
All pots = -2*Zval/r beyond r=  1.1278

VLOCAL1: 99.0% of the norm of Vloc inside     34.126 Ry
VLOCAL1: 99.9% of the norm of Vloc inside     77.774 Ry
atom: Maximum radius for 4*pi*r*r*local-pseudopot. charge    1.37759
atom: Maximum radius for r*vlocal+2*Zval:    1.18566
GHOST: No ghost state for L =  0
GHOST: No ghost state for L =  1
GHOST: No ghost state for L =  2
GHOST: No ghost state for L =  3

KBgen: Kleinman-Bylander projectors: 
   l= 0   rc=  1.262145   el= -1.757696   Ekb=  9.224596   kbcos=  0.328556
   l= 1   rc=  1.262145   el= -0.664256   Ekb= -7.912306   kbcos= -0.392969
   l= 2   rc=  1.343567   el=  0.002031   Ekb= -1.926788   kbcos= -0.003514
   l= 3   rc=  1.394919   el=  0.003153   Ekb= -0.739398   kbcos= -0.000358

KBgen: Total number of  Kleinman-Bylander projectors:   16
atom: -------------------------------------------------------------------------

atom: SANKEY-TYPE ORBITALS:
atom: Selected multiple-zeta basis: split     

atom: basis set generated (by rescaling the valence charge)
atom: for an anion of charge  -0.2423

SPLIT: Orbitals with angular momentum L= 0

SPLIT: Basis orbitals for state 2s

   izeta = 1
                 lambda =    1.000000
                     rc =    4.574469
                 energy =   -1.754696
                kinetic =    1.490911
    potential(screened) =   -3.245607
       potential(ionic) =  -11.056427

   izeta = 2
                 rmatch =    2.639108
              splitnorm =    0.147030
                 energy =   -1.549984
                kinetic =    2.329575
    potential(screened) =   -3.879559
       potential(ionic) =  -12.330999

SPLIT: Orbitals with angular momentum L= 1

SPLIT: Basis orbitals for state 2p

   izeta = 1
                 lambda =    1.000000
                     rc =    6.174996
                 energy =   -0.657402
                kinetic =    4.283935
    potential(screened) =   -4.941337
       potential(ionic) =  -12.290306

   izeta = 2
                 rmatch =    2.639108
              splitnorm =    0.214868
                 energy =   -0.410830
                kinetic =    7.128181
    potential(screened) =   -7.539011
       potential(ionic) =  -16.115673

SPLIT: Orbitals with angular momentum L= 2

SPLIT: Basis orbitals for state 3d

   izeta = 1
                 lambda =    1.000000
                     rc =    3.562532
                 energy =    3.658839
                kinetic =    6.488139
    potential(screened) =   -2.829300
       potential(ionic) =  -10.001503
atom: Total number of Sankey-type orbitals: 13

atm_pop: Valence configuration (for local Pseudopot. screening):
 2s( 2.00)                                                            
 2p( 4.00)                                                            
 3d( 0.00)                                                            
Vna: chval, zval:    6.00000   6.00000

Vna:  Cut-off radius for the neutral-atom potential:   6.174996
comcore: Pseudo-core radius Rcore=  1.377587

atom: _________________________________________________________________________

<basis_specs>
===============================================================================
Au.gga.3             Z=  79    Mass=  196.97        Charge= 0.17977+309
Lmxo=2 Lmxkb= 3    BasisType=split      Semic=F
L=0  Nsemic=0  Cnfigmx=6
          n=1  nzeta=2  polorb=1
            splnorm:   0.15000    
               vcte:    0.0000    
               rinn:    0.0000    
               qcoe:    0.0000    
               qyuk:    0.0000    
               qwid:   0.10000E-01
                rcs:    0.0000      0.0000    
            lambdas:    1.0000      1.0000    
L=1  Nsemic=0  Cnfigmx=6
L=2  Nsemic=0  Cnfigmx=5
          n=1  nzeta=2  polorb=0
            splnorm:   0.15000    
               vcte:    0.0000    
               rinn:    0.0000    
               qcoe:    0.0000    
               qyuk:    0.0000    
               qwid:   0.10000E-01
                rcs:    0.0000      0.0000    
            lambdas:    1.0000      1.0000    
-------------------------------------------------------------------------------
L=0  Nkbl=1  erefs: 0.17977+309
L=1  Nkbl=1  erefs: 0.17977+309
L=2  Nkbl=1  erefs: 0.17977+309
L=3  Nkbl=1  erefs: 0.17977+309
===============================================================================
</basis_specs>

atom: Called for Au.gga.3              (Z =  79)

read_vps: Pseudopotential generation method:
read_vps: ATM3      Troullier-Martins                       
Total valence charge:   11.00000

read_vps: Pseudopotential includes a core correction:
read_vps: Pseudo-core for xc-correction

xc_check: Exchange-correlation functional:
xc_check: GGA Perdew, Burke & Ernzerhof 1996
V l=0 = -2*Zval/r beyond r=  2.9833
V l=1 = -2*Zval/r beyond r=  2.9833
V l=2 = -2*Zval/r beyond r=  2.9833
V l=3 = -2*Zval/r beyond r=  2.9833
All V_l potentials equal beyond r=  2.2946
This should be close to max(r_c) in ps generation
All pots = -2*Zval/r beyond r=  2.9833
Using large-core scheme for Vlocal

atom: Estimated core radius    2.98333
atom: Maximum radius for 4*pi*r*r*local-pseudopot. charge    3.25614
atom: Maximum radius for r*vlocal+2*Zval:    3.02086
GHOST: No ghost state for L =  0
GHOST: No ghost state for L =  1
GHOST: No ghost state for L =  2
GHOST: No ghost state for L =  3

KBgen: Kleinman-Bylander projectors: 
   l= 0   rc=  2.382235   el= -0.513519   Ekb=  5.087925   kbcos=  0.278237
   l= 1   rc=  2.382235   el= -0.109829   Ekb=  2.881759   kbcos=  0.226107
   l= 2   rc=  2.382235   el= -0.663286   Ekb= -4.434057   kbcos= -0.694733
   l= 3   rc=  2.382235   el=  0.003083   Ekb= -2.571105   kbcos= -0.013009

KBgen: Total number of  Kleinman-Bylander projectors:   16
atom: -------------------------------------------------------------------------

atom: SANKEY-TYPE ORBITALS:
atom: Selected multiple-zeta basis: split     

SPLIT: Orbitals with angular momentum L= 0

SPLIT: Basis orbitals for state 6s

SPLIT: PAO cut-off radius determined from an
SPLIT: energy shift=  0.007350 Ry

   izeta = 1
                 lambda =    1.000000
                     rc =    6.723087
                 energy =   -0.506600
                kinetic =    0.398622
    potential(screened) =   -0.905223
       potential(ionic) =   -8.548368

   izeta = 2
                 rmatch =    5.643738
              splitnorm =    0.150000
                 energy =   -0.431591
                kinetic =    0.653484
    potential(screened) =   -1.085075
       potential(ionic) =   -9.245123

SPLIT: Orbitals with angular momentum L= 2

SPLIT: Basis orbitals for state 5d

SPLIT: PAO cut-off radius determined from an
SPLIT: energy shift=  0.007350 Ry

   izeta = 1
                 lambda =    1.000000
                     rc =    4.737670
                 energy =   -0.656650
                kinetic =    5.068938
    potential(screened) =   -5.725588
       potential(ionic) =  -16.071180

   izeta = 2
                 rmatch =    2.802581
              splitnorm =    0.150000
                 energy =   -0.349126
                kinetic =    7.097014
    potential(screened) =   -7.446140
       potential(ionic) =  -18.531204

POLgen: Perturbative polarization orbital with L=  1

POLgen: Polarization orbital for state 6s

   izeta = 1
                     rc =    6.723087
                 energy =   -0.153149
                kinetic =    0.703267
    potential(screened) =   -0.856416
       potential(ionic) =   -8.074316
atom: Total number of Sankey-type orbitals: 15

atm_pop: Valence configuration (for local Pseudopot. screening):
 6s( 1.00)                                                            
 6p( 0.00)                                                            
 5d(10.00)                                                            
Vna: chval, zval:   11.00000  11.00000

Vna:  Cut-off radius for the neutral-atom potential:   6.723087
comcore: Pseudo-core radius Rcore=  3.977066

atom: _________________________________________________________________________

<basis_specs>
===============================================================================
Au.gga.4             Z=  79    Mass=  196.97        Charge= 0.17977+309
Lmxo=2 Lmxkb= 3    BasisType=split      Semic=F
L=0  Nsemic=0  Cnfigmx=6
          n=1  nzeta=2  polorb=1
            splnorm:   0.15000    
               vcte:    0.0000    
               rinn:    0.0000    
               qcoe:    0.0000    
               qyuk:    0.0000    
               qwid:   0.10000E-01
                rcs:    7.2470      5.7150    
            lambdas:    1.0000      1.0000    
L=1  Nsemic=0  Cnfigmx=6
L=2  Nsemic=0  Cnfigmx=5
          n=1  nzeta=2  polorb=0
            splnorm:   0.15000    
               vcte:    0.0000    
               rinn:    0.0000    
               qcoe:    0.0000    
               qyuk:    0.0000    
               qwid:   0.10000E-01
                rcs:    5.1070      2.8380    
            lambdas:    1.0000      1.0000    
-------------------------------------------------------------------------------
L=0  Nkbl=1  erefs: 0.17977+309
L=1  Nkbl=1  erefs: 0.17977+309
L=2  Nkbl=1  erefs: 0.17977+309
L=3  Nkbl=1  erefs: 0.17977+309
===============================================================================
</basis_specs>

atom: Called for Au.gga.4              (Z =  79)

read_vps: Pseudopotential generation method:
read_vps: ATM3      Troullier-Martins                       
Total valence charge:   11.00000

read_vps: Pseudopotential includes a core correction:
read_vps: Pseudo-core for xc-correction

xc_check: Exchange-correlation functional:
xc_check: GGA Perdew, Burke & Ernzerhof 1996
V l=0 = -2*Zval/r beyond r=  2.9833
V l=1 = -2*Zval/r beyond r=  2.9833
V l=2 = -2*Zval/r beyond r=  2.9833
V l=3 = -2*Zval/r beyond r=  2.9833
All V_l potentials equal beyond r=  2.2946
This should be close to max(r_c) in ps generation
All pots = -2*Zval/r beyond r=  2.9833
Using large-core scheme for Vlocal

atom: Estimated core radius    2.98333
atom: Maximum radius for 4*pi*r*r*local-pseudopot. charge    3.25614
atom: Maximum radius for r*vlocal+2*Zval:    3.02086
GHOST: No ghost state for L =  0
GHOST: No ghost state for L =  1
GHOST: No ghost state for L =  2
GHOST: No ghost state for L =  3

KBgen: Kleinman-Bylander projectors: 
   l= 0   rc=  2.382235   el= -0.513519   Ekb=  5.087925   kbcos=  0.278237
   l= 1   rc=  2.382235   el= -0.109829   Ekb=  2.881759   kbcos=  0.226107
   l= 2   rc=  2.382235   el= -0.663286   Ekb= -4.434057   kbcos= -0.694733
   l= 3   rc=  2.382235   el=  0.003083   Ekb= -2.571105   kbcos= -0.013009

KBgen: Total number of  Kleinman-Bylander projectors:   16
atom: -------------------------------------------------------------------------

atom: SANKEY-TYPE ORBITALS:
atom: Selected multiple-zeta basis: split     

SPLIT: Orbitals with angular momentum L= 0

SPLIT: Basis orbitals for state 6s

   izeta = 1
                 lambda =    1.000000
                     rc =    7.246712
                 energy =   -0.510007
                kinetic =    0.385781
    potential(screened) =   -0.895788
       potential(ionic) =   -8.490322

   izeta = 2
                 rmatch =    5.786611
              splitnorm =    0.137361
                 energy =   -0.445151
                kinetic =    0.623150
    potential(screened) =   -1.068301
       potential(ionic) =   -9.190366

SPLIT: Orbitals with angular momentum L= 2

SPLIT: Basis orbitals for state 5d

   izeta = 1
                 lambda =    1.000000
                     rc =    5.106662
                 energy =   -0.659762
                kinetic =    5.025587
    potential(screened) =   -5.685349
       potential(ionic) =  -16.000690

   izeta = 2
                 rmatch =    2.873530
              splitnorm =    0.141056
                 energy =   -0.387690
                kinetic =    6.936955
    potential(screened) =   -7.324646
       potential(ionic) =  -18.374036

POLgen: Perturbative polarization orbital with L=  1

POLgen: Polarization orbital for state 6s

   izeta = 1
                     rc =    7.246712
                 energy =   -0.163164
                kinetic =    0.676967
    potential(screened) =   -0.840131
       potential(ionic) =   -7.980465
atom: Total number of Sankey-type orbitals: 15

atm_pop: Valence configuration (for local Pseudopot. screening):
 6s( 1.00)                                                            
 6p( 0.00)                                                            
 5d(10.00)                                                            
Vna: chval, zval:   11.00000  11.00000

Vna:  Cut-off radius for the neutral-atom potential:   7.246712
comcore: Pseudo-core radius Rcore=  3.977066

atom: _________________________________________________________________________

<basis_specs>
===============================================================================
Au.gga.5             Z=  79    Mass=  196.97        Charge= 0.17977+309
Lmxo=2 Lmxkb= 3    BasisType=split      Semic=F
L=0  Nsemic=0  Cnfigmx=6
          n=1  nzeta=2  polorb=1
            splnorm:   0.15000    
               vcte:    0.0000    
               rinn:    0.0000    
               qcoe:    0.0000    
               qyuk:    0.0000    
               qwid:   0.10000E-01
                rcs:    9.0750      5.7870    
            lambdas:    1.0000      1.0000    
L=1  Nsemic=0  Cnfigmx=6
L=2  Nsemic=0  Cnfigmx=5
          n=1  nzeta=2  polorb=0
            splnorm:   0.15000    
               vcte:    0.0000    
               rinn:    0.0000    
               qcoe:    0.0000    
               qyuk:    0.0000    
               qwid:   0.10000E-01
                rcs:    6.5570      2.8740    
            lambdas:    1.0000      1.0000    
-------------------------------------------------------------------------------
L=0  Nkbl=1  erefs: 0.17977+309
L=1  Nkbl=1  erefs: 0.17977+309
L=2  Nkbl=1  erefs: 0.17977+309
L=3  Nkbl=1  erefs: 0.17977+309
===============================================================================
</basis_specs>

atom: Called for Au.gga.5              (Z =  79)

read_vps: Pseudopotential generation method:
read_vps: ATM3      Troullier-Martins                       
Total valence charge:   11.00000

read_vps: Pseudopotential includes a core correction:
read_vps: Pseudo-core for xc-correction

xc_check: Exchange-correlation functional:
xc_check: GGA Perdew, Burke & Ernzerhof 1996
V l=0 = -2*Zval/r beyond r=  2.9833
V l=1 = -2*Zval/r beyond r=  2.9833
V l=2 = -2*Zval/r beyond r=  2.9833
V l=3 = -2*Zval/r beyond r=  2.9833
All V_l potentials equal beyond r=  2.2946
This should be close to max(r_c) in ps generation
All pots = -2*Zval/r beyond r=  2.9833
Using large-core scheme for Vlocal

atom: Estimated core radius    2.98333
atom: Maximum radius for 4*pi*r*r*local-pseudopot. charge    3.25614
atom: Maximum radius for r*vlocal+2*Zval:    3.02086
GHOST: No ghost state for L =  0
GHOST: No ghost state for L =  1
GHOST: No ghost state for L =  2
GHOST: No ghost state for L =  3

KBgen: Kleinman-Bylander projectors: 
   l= 0   rc=  2.382235   el= -0.513519   Ekb=  5.087925   kbcos=  0.278237
   l= 1   rc=  2.382235   el= -0.109829   Ekb=  2.881759   kbcos=  0.226107
   l= 2   rc=  2.382235   el= -0.663286   Ekb= -4.434057   kbcos= -0.694733
   l= 3   rc=  2.382235   el=  0.003083   Ekb= -2.571105   kbcos= -0.013009

KBgen: Total number of  Kleinman-Bylander projectors:   16
atom: -------------------------------------------------------------------------

atom: SANKEY-TYPE ORBITALS:
atom: Selected multiple-zeta basis: split     

SPLIT: Orbitals with angular momentum L= 0

SPLIT: Basis orbitals for state 6s

   izeta = 1
                 lambda =    1.000000
                     rc =    9.075230
                 energy =   -0.513232
                kinetic =    0.370471
    potential(screened) =   -0.883703
       potential(ionic) =   -8.414024

   izeta = 2
                 rmatch =    5.786611
              splitnorm =    0.148012
                 energy =   -0.446211
                kinetic =    0.620438
    potential(screened) =   -1.066649
       potential(ionic) =   -9.184844

SPLIT: Orbitals with angular momentum L= 2

SPLIT: Basis orbitals for state 5d

   izeta = 1
                 lambda =    1.000000
                     rc =    6.557093
                 energy =   -0.663050
                kinetic =    4.966809
    potential(screened) =   -5.629858
       potential(ionic) =  -15.898967

   izeta = 2
                 rmatch =    2.873530
              splitnorm =    0.149391
                 energy =   -0.387750
                kinetic =    6.936394
    potential(screened) =   -7.324143
       potential(ionic) =  -18.373423

POLgen: Perturbative polarization orbital with L=  1

POLgen: Polarization orbital for state 6s

   izeta = 1
                     rc =    9.075230
                 energy =   -0.175654
                kinetic =    0.640919
    potential(screened) =   -0.816572
       potential(ionic) =   -7.839035
atom: Total number of Sankey-type orbitals: 15

atm_pop: Valence configuration (for local Pseudopot. screening):
 6s( 1.00)                                                            
 6p( 0.00)                                                            
 5d(10.00)                                                            
Vna: chval, zval:   11.00000  11.00000

Vna:  Cut-off radius for the neutral-atom potential:   9.075230
comcore: Pseudo-core radius Rcore=  3.977066

atom: _________________________________________________________________________

prinput: Basis input ----------------------------------------------------------

PAO.BasisType split     

%block ChemicalSpeciesLabel
    1    1 H.1                     # Species index, atomic number, species label
    2    8 O.2                     # Species index, atomic number, species label
    3   79 Au.gga.3                # Species index, atomic number, species label
    4   79 Au.gga.4                # Species index, atomic number, species label
    5   79 Au.gga.5                # Species index, atomic number, species label
%endblock ChemicalSpeciesLabel

%block PAO.Basis                 # Define Basis set
H.1                   2   0.465            # Label, l-shells, ionic net charge
 n=1   0   2                         # n, l, Nzeta 
   4.261      1.866   
   1.000      1.000   
 n=2   1   1                         # n, l, Nzeta 
   3.576   
   1.000   
O.2                   3  -0.242            # Label, l-shells, ionic net charge
 n=2   0   2                         # n, l, Nzeta 
   4.574      2.639   
   1.000      1.000   
 n=2   1   2                         # n, l, Nzeta 
   6.175      2.639   
   1.000      1.000   
 n=3   2   1                         # n, l, Nzeta 
   3.563   
   1.000   
Au.gga.3              2                    # Species label, number of l-shells
 n=6   0   2 P   1                   # n, l, Nzeta, Polarization, NzetaPol
   6.723      5.644   
   1.000      1.000   
 n=5   2   2                         # n, l, Nzeta 
   4.738      2.803   
   1.000      1.000   
Au.gga.4              2                    # Species label, number of l-shells
 n=6   0   2 P   1                   # n, l, Nzeta, Polarization, NzetaPol
   7.247      5.787   
   1.000      1.000   
 n=5   2   2                         # n, l, Nzeta 
   5.107      2.874   
   1.000      1.000   
Au.gga.5              2                    # Species label, number of l-shells
 n=6   0   2 P   1                   # n, l, Nzeta, Polarization, NzetaPol
   9.075      5.787   
   1.000      1.000   
 n=5   2   2                         # n, l, Nzeta 
   6.557      2.874   
   1.000      1.000   
%endblock PAO.Basis

prinput: ----------------------------------------------------------------------

Dumping basis to NetCDF file H.1.ion.nc
Dumping basis to NetCDF file O.2.ion.nc
Dumping basis to NetCDF file Au.gga.3.ion.nc
Dumping basis to NetCDF file Au.gga.4.ion.nc
Dumping basis to NetCDF file Au.gga.5.ion.nc
coor:   Atomic-coordinates input format  =     Cartesian coordinates
coor:                                          (in Angstroms)

siesta: Atomic coordinates (Bohr) and species
siesta:     -0.01521  -0.15946  46.93324  5        1
siesta:      5.60527  -0.19490  46.88099  5        2
siesta:     11.18846  -0.20770  47.00903  5        3
siesta:     16.82346  -0.16918  47.06216  5        4
siesta:      2.80424   4.66177  46.83108  5        5
siesta:      8.40258   4.66043  46.90930  5        6
siesta:     14.01924   4.68096  47.04169  5        7
siesta:     19.62151   4.67053  46.89377  5        8
siesta:     -0.01516   9.51686  46.95174  5        9
siesta:      5.61018   9.53927  46.84333  5       10
siesta:     11.20863   9.53640  46.94480  5       11
siesta:     16.81443   9.51919  47.10097  5       12
siesta:      2.83311  14.40752  46.99621  5       13
siesta:      8.40218  14.40328  46.85134  5       14
siesta:     13.96883  14.40120  47.16178  5       15
siesta:     19.60128  14.39970  47.09779  5       16
siesta:      2.80436   1.50526  51.73023  5       17
siesta:      8.38138   1.51481  51.78605  5       18
siesta:     13.97747   1.53493  51.82393  5       19
siesta:     19.60090   1.56651  51.80739  5       20
siesta:     -0.02311   6.33005  51.65273  5       21
siesta:      5.60765   6.36565  51.62061  5       22
siesta:     11.19679   6.37699  51.74992  5       23
siesta:     16.78650   6.38678  51.93820  5       24
siesta:      2.79155  11.22686  51.66352  5       25
siesta:      8.38692  11.27499  51.67756  5       26
siesta:     14.00005  11.23946  51.88040  5       27
siesta:     19.61514  11.20584  51.83563  5       28
siesta:      0.05840  16.13198  51.69033  5       29
siesta:      5.57019  16.14143  51.79517  5       30
siesta:     11.14817  16.10175  51.91266  5       31
siesta:     16.80584  16.10359  51.84668  5       32
siesta:     -0.03433   3.22571  56.47317  3       33
siesta:      5.55218   3.19417  56.41514  3       34
siesta:     11.21875   3.19429  56.44726  3       35
siesta:     16.85297   3.14688  56.61362  3       36
siesta:      2.77064   8.11742  56.20388  3       37
siesta:      8.38552   8.09656  56.30662  3       38
siesta:     13.98442   8.02710  56.62679  3       39
siesta:     19.60303   8.01067  56.52175  3       40
siesta:     -0.06241  12.92733  56.36896  3       41
siesta:      5.62655  12.95806  56.36081  3       42
siesta:     11.20197  12.88438  56.55203  3       43
siesta:     16.79122  12.83888  56.59060  3       44
siesta:      2.72991  17.79235  56.58966  3       45
siesta:      8.37632  17.81541  56.52780  3       46
siesta:     14.04609  17.73315  56.54068  3       47
siesta:     19.61176  17.72041  56.31533  3       48
siesta:     -0.56805  -0.15894  61.12678  3       49
siesta:      5.67552   0.15283  61.37753  3       50
siesta:     11.14763   0.12280  61.44567  3       51
siesta:     16.46996   0.01775  61.70933  3       52
siesta:      2.97885   5.60852  60.79874  3       53
siesta:      8.57067   5.03674  61.18578  3       54
siesta:     14.09402   4.92961  61.56125  3       55
siesta:     19.56616   4.68425  62.22626  3       56
siesta:     -0.33649   9.79813  61.35192  3       57
siesta:      5.82740  10.12898  61.28489  3       58
siesta:     11.28249   9.82927  61.58083  3       59
siesta:     16.71998   9.64629  61.84505  3       60
siesta:      2.59269  14.62584  61.22877  3       61
siesta:      8.32306  14.84606  61.54862  3       62
siesta:     13.89751  14.61964  61.57749  3       63
siesta:     19.38469  14.49373  61.65064  3       64
siesta:      2.79776   2.75225  64.17685  2       65
siesta:      3.30603   3.39572  65.85483  1       66
siesta:     -0.06039   2.65713  63.66054  1       67

siesta: System type = slab      

initatomlists: Number of atoms, orbitals, and projectors:     67   983  1058

siesta: ******************** Simulation parameters ****************************
siesta:
siesta: The following are some of the parameters of the simulation.
siesta: A complete list of the parameters used, including default values,
siesta: can be found in file out.fdf
siesta:
redata: Non-Collinear-spin run           =     F
redata: SpinPolarized (Up/Down) run      =     F
redata: Number of spin components        =     1
redata: Long output                      =     F
redata: Number of Atomic Species         =        5
redata: Charge density info will appear in .RHO file
redata: Write Mulliken Pop.              =     NO
redata: Mesh Cutoff                      =   699.9937  Ry
redata: Net charge of the system         =     0.0000 |e|
redata: Min. number of SCF Iter          =        0
redata: Max. number of SCF Iter          =      500
redata: SCF convergence failure will abort job
redata: Mix DM or H after convergence    =     F
redata: Recompute H after scf cycle      =     F
redata: Performing Pulay mixing using    =     3 iterations
redata: Mix DM in first SCF step ?       =     F
redata: Write Pulay info on disk?        =     F
redata: Discard 1st Pulay DM after  kick =     F
redata: New DM Mixing Weight             =     0.0300
redata: New DM Occupancy tolerance       = 0.000000000001
redata: No kicks to SCF
redata: DM Mixing Weight for Kicks       =     0.5000
redata: DM Tolerance for SCF             =     0.000100
redata: Require (free) Energy convergence in SCF =     F
redata: DM (free)Energy tolerance for SCF =     0.000010 eV
redata: Require Harris convergence for SCF =     F
redata: DM Harris energy tolerance for SCF =     0.000010 eV
redata: Using Saved Data (generic)   =     F
redata: Use continuation files for DM    =     F
redata: Neglect nonoverlap interactions  =     F
redata: Method of Calculation            =     Diagonalization
redata: Divide and Conquer               =     T
redata: Electronic Temperature           =     0.0037  Ry
redata: Fix the spin of the system       =     F
redata: Dynamics option                  =     Single-point calculation
redata: ***********************************************************************
Total number of electrons:   712.000000
Total ionic charge:   712.000000

* ProcessorY, Blocksize:    4  24


* Orbital distribution balance (max,min):    48    24

 Kpoints in:            1 . Kpoints trimmed:            1

siesta: k-grid: Number of k-points =     1
siesta: k-grid: Cutoff (effective) =     5.186 Ang
siesta: k-grid: Supercell and displacements
siesta: k-grid:    1   0   0      0.000
siesta: k-grid:    0   1   0      0.000
siesta: k-grid:    0   0   1      0.000

                     ====================================
                        Single-point calculation
                     ====================================

outcell: Unit cell vectors (Ang):
       11.975725    0.000000    0.000000
        0.000000   10.371282    0.000000
        0.000000    0.000000   57.333624

outcell: Cell vector modules (Ang)   :   11.975725   10.371282   57.333624
outcell: Cell angles (23,13,12) (deg):     90.0000     90.0000     90.0000
outcell: Cell volume (Ang**3)        :   7121.0442
 Folding of H and S is implicitly performed
New_DM. Step:     1
Initializing Density Matrix...

initdm: WARNING: DM.InitSpin not used because nspin < 2
New grid distribution:   1
           1       1:   96    1:   23    1:   60
           2       1:   96    1:   23   61:  120
           3       1:   96    1:   23  121:  180
           4       1:   96    1:   23  181:  240
           5       1:   96    1:   23  241:  300
           6       1:   96    1:   23  301:  360
           7       1:   96    1:   23  361:  420
           8       1:   96    1:   23  421:  480
           9       1:   96   24:   46    1:   60
          10       1:   96   24:   46   61:  120
          11       1:   96   24:   46  121:  180
          12       1:   96   24:   46  181:  240
          13       1:   96   24:   46  241:  300
          14       1:   96   24:   46  301:  360
          15       1:   96   24:   46  361:  420
          16       1:   96   24:   46  421:  480
          17       1:   96   47:   68    1:   60
          18       1:   96   47:   68   61:  120
          19       1:   96   47:   68  121:  180
          20       1:   96   47:   68  181:  240
          21       1:   96   47:   68  241:  300
          22       1:   96   47:   68  301:  360
          23       1:   96   47:   68  361:  420
          24       1:   96   47:   68  421:  480
          25       1:   96   69:   90    1:   60
          26       1:   96   69:   90   61:  120
          27       1:   96   69:   90  121:  180
          28       1:   96   69:   90  181:  240
          29       1:   96   69:   90  241:  300
          30       1:   96   69:   90  301:  360
          31       1:   96   69:   90  361:  420
          32       1:   96   69:   90  421:  480

InitMesh: MESH =   192 x   180 x   960 =    33177600
InitMesh: (bp) =    96 x    90 x   480 =     4147200
InitMesh: Mesh cutoff (required, used) =   699.994   710.396 Ry
ExtMesh (bp) on 0 =   252 x   191 x   224 =    10781568
New grid distribution:   2
           1      48:   96    1:   44    1:  206
           2      49:   96   46:   90  229:  236
           3      49:   96    1:   45  215:  221
           4       1:   48    1:   45  237:  245
           5      48:   96    1:   45  246:  257
           6      49:   96    1:   44  258:  480
           7       1:   48   46:   90  207:  214
           8      49:   96   46:   90  215:  221
           9       1:   47    1:   44    1:  206
          10       1:   48    1:   45  207:  214
          11       1:   48    1:   45  215:  221
          12      49:   96    1:   45  237:  245
          13       1:   47    1:   45  246:  257
          14       1:   48    1:   43  258:  480
          15      49:   96    1:   45  207:  214
          16       1:   48   46:   90  215:  221
          17      48:   96   45:   90    1:  206
          18       1:   48    1:   45  229:  236
          19      49:   96    1:   45  222:  228
          20      49:   96   46:   90  237:  245
          21      48:   96   46:   90  246:  257
          22       1:   48   44:   90  258:  480
          23      49:   96   46:   90  207:  214
          24      49:   96   46:   90  222:  228
          25       1:   47   45:   90    1:  206
          26      49:   96    1:   45  229:  236
          27       1:   48    1:   45  222:  228
          28       1:   48   46:   90  237:  245
          29       1:   47   46:   90  246:  257
          30      49:   96   45:   90  258:  480
          31       1:   48   46:   90  229:  236
          32       1:   48   46:   90  222:  228
New grid distribution:   3
           1      48:   96    1:   45    1:  185
           2       1:   48    1:   45  254:  270
           3      49:   96   46:   90  186:  202
           4       1:   48    1:   45  186:  202
           5      49:   96    1:   45  254:  270
           6      48:   96    1:   43  288:  480
           7       1:   48    1:   45  271:  287
           8       1:   48    1:   45  237:  253
           9       1:   47    1:   45    1:  185
          10      49:   96   46:   90  271:  287
          11       1:   48   46:   90  271:  287
          12       1:   48   46:   90  186:  202
          13      49:   96    1:   45  237:  253
          14       1:   47    1:   40  288:  480
          15       1:   48    1:   45  203:  219
          16      49:   96   46:   90  220:  236
          17      48:   96   46:   90    1:  185
          18      49:   96   46:   90  203:  219
          19       1:   48   46:   90  237:  253
          20      49:   96   46:   90  237:  253
          21       1:   48   46:   90  254:  270
          22       1:   47   41:   90  288:  480
          23      49:   96    1:   45  203:  219
          24       1:   48   46:   90  220:  236
          25       1:   47   46:   90    1:  185
          26      49:   96    1:   45  271:  287
          27       1:   48    1:   45  220:  236
          28       1:   48   46:   90  203:  219
          29      49:   96   46:   90  254:  270
          30      48:   96   44:   90  288:  480
          31      49:   96    1:   45  186:  202
          32      49:   96    1:   45  220:  236
Setting up quadratic distribution...
ExtMesh (bp) on 0 =   205 x   212 x   370 =    16080200
PhiOnMesh: Number of (b)points on node 0 =               444136
PhiOnMesh: nlist on node 0 =              3697091

stepf: Fermi-Dirac step function

siesta: Program's energy decomposition (eV):
siesta: Ebs     =     -3466.950425
siesta: Eions   =     74448.861464
siesta: Ena     =      3161.592297
siesta: Ekin    =     44340.467594
siesta: Enl     =    -18461.012286
siesta: DEna    =         0.000048
siesta: DUscf   =         0.000000
siesta: DUext   =         0.000000
siesta: Exc     =    -46059.785851
siesta: eta*DQ  =         0.000000
siesta: Emadel  =         0.000000
siesta: Emeta   =         0.000000
siesta: Emolmec =         0.000000
siesta: Ekinion =         0.000000
siesta: Eharris =    -91688.627663
siesta: Etot    =    -91467.599663
siesta: FreeEng =    -91468.083802

   scf: iscf   Eharris(eV)      E_KS(eV)   FreeEng(eV)    dDmax  Ef(eV)
   scf:    1   -91688.6277   -91467.5997   -91468.0838  1.64594 -1.3858
timer: Routine,Calls,Time,% =    IterSCF     1       8.644  30.66
   scf:    2  -104399.4809   -90994.0715   -90994.2418209.37117-12.1708
   scf:    3   -91667.8036   -91473.6448   -91473.8787  1.37228 -1.9550
   scf:    4   -91647.9986   -91482.3769   -91482.6961  1.24416 -2.3031
   scf:    5   -91602.8129   -91507.6805   -91507.9458  0.79032 -3.4488
   scf:    6   -91582.2554   -91524.7340   -91524.9647  0.54559 -4.2068
   scf:    7   -91578.9978   -91532.0896   -91532.2577  0.56912 -4.3818
   scf:    8   -91577.1857   -91537.7980   -91537.9063  0.50497 -4.2076
   scf:    9   -91577.0075   -91542.9292   -91543.0276  0.38346 -3.9876
   scf:   10   -91577.6635   -91549.5219   -91549.6180  0.25669 -3.7837
   scf:   11   -91578.5478   -91558.1786   -91558.2741  0.21662 -3.6871
   scf:   12   -91578.1026   -91559.9884   -91560.0850  0.19265 -3.7437
   scf:   13   -91576.9988   -91562.5557   -91562.6649  0.13001 -3.9209
   scf:   14   -91576.6465   -91562.7129   -91562.8259  0.14478 -4.0125
   scf:   15   -91576.5673   -91562.8710   -91562.9810  0.14513 -4.0108
   scf:   16   -91576.4408   -91563.6854   -91563.7871  0.14748 -3.9531
   scf:   17   -91576.4383   -91564.3184   -91564.4190  0.13790 -3.9505
   scf:   18   -91576.6361   -91568.3017   -91568.4023  0.10548 -3.9941
   scf:   19   -91576.6570   -91569.7182   -91569.8212  0.08926 -4.0113
   scf:   20   -91576.5390   -91572.1314   -91572.2398  0.04833 -4.0194
   scf:   21   -91576.4761   -91572.5687   -91572.6761  0.03616 -3.9988
   scf:   22   -91576.4247   -91572.5622   -91572.6669  0.03882 -3.9657
   scf:   23   -91576.4105   -91572.5149   -91572.6188  0.04217 -3.9634
   scf:   24   -91576.3963   -91572.5480   -91572.6512  0.04263 -3.9762
   scf:   25   -91576.3952   -91572.7513   -91572.8549  0.03787 -3.9921
   scf:   26   -91576.4006   -91573.2189   -91573.3234  0.03331 -4.0079
   scf:   27   -91576.4086   -91574.0603   -91574.1657  0.02558 -4.0095
   scf:   28   -91576.4082   -91574.6615   -91574.7666  0.01783 -3.9960
   scf:   29   -91576.4019   -91574.9894   -91575.0935  0.01513 -3.9773
   scf:   30   -91576.3978   -91575.0527   -91575.1564  0.01301 -3.9744
   scf:   31   -91576.3926   -91575.0318   -91575.1354  0.01514 -3.9834
   scf:   32   -91576.3910   -91575.0442   -91575.1480  0.01490 -3.9906
   scf:   33   -91576.3897   -91575.1264   -91575.2306  0.01209 -4.0008
   scf:   34   -91576.3898   -91575.2258   -91575.3302  0.01129 -4.0021
   scf:   35   -91576.3913   -91575.4740   -91575.5783  0.00923 -3.9969
   scf:   36   -91576.3918   -91575.6282   -91575.7322  0.00764 -3.9917
   scf:   37   -91576.3915   -91575.7867   -91575.8904  0.00606 -3.9885
   scf:   38   -91576.3906   -91575.8665   -91575.9701  0.00522 -3.9915
   scf:   39   -91576.3900   -91575.9044   -91576.0081  0.00499 -3.9968
   scf:   40   -91576.3895   -91575.9144   -91576.0184  0.00470 -4.0007
   scf:   41   -91576.3893   -91575.9236   -91576.0277  0.00462 -4.0017
   scf:   42   -91576.3892   -91575.9479   -91576.0521  0.00444 -4.0003
   scf:   43   -91576.3893   -91575.9768   -91576.0810  0.00420 -3.9989
   scf:   44   -91576.3896   -91576.0503   -91576.1542  0.00355 -3.9974
   scf:   45   -91576.3897   -91576.1110   -91576.2149  0.00296 -3.9982
   scf:   46   -91576.3896   -91576.1849   -91576.2887  0.00241 -4.0011
   scf:   47   -91576.3895   -91576.2130   -91576.3169  0.00227 -4.0025
   scf:   48   -91576.3893   -91576.2270   -91576.3311  0.00215 -4.0030
   scf:   49   -91576.3892   -91576.2288   -91576.3330  0.00187 -4.0024
   scf:   50   -91576.3891   -91576.2300   -91576.3342  0.00164 -4.0015
   scf:   51   -91576.3892   -91576.2349   -91576.3390  0.00162 -4.0012
   scf:   52   -91576.3892   -91576.2472   -91576.3513  0.00153 -4.0013
   scf:   53   -91576.3892   -91576.2670   -91576.3711  0.00133 -4.0020
   scf:   54   -91576.3893   -91576.2908   -91576.3949  0.00135 -4.0026
   scf:   55   -91576.3892   -91576.3141   -91576.4182  0.00127 -4.0028
   scf:   56   -91576.3892   -91576.3249   -91576.4290  0.00121 -4.0024
   scf:   57   -91576.3891   -91576.3292   -91576.4334  0.00095 -4.0019
   scf:   58   -91576.3891   -91576.3304   -91576.4345  0.00078 -4.0017
   scf:   59   -91576.3891   -91576.3319   -91576.4360  0.00062 -4.0018
   scf:   60   -91576.3891   -91576.3339   -91576.4381  0.00061 -4.0019
   scf:   61   -91576.3892   -91576.3403   -91576.4444  0.00054 -4.0022
   scf:   62   -91576.3892   -91576.3465   -91576.4506  0.00058 -4.0022
   scf:   63   -91576.3892   -91576.3557   -91576.4598  0.00058 -4.0020
   scf:   64   -91576.3892   -91576.3609   -91576.4650  0.00050 -4.0019
   scf:   65   -91576.3891   -91576.3647   -91576.4688  0.00043 -4.0018
   scf:   66   -91576.3891   -91576.3664   -91576.4705  0.00033 -4.0019
   scf:   67   -91576.3891   -91576.3673   -91576.4714  0.00025 -4.0020
   scf:   68   -91576.3892   -91576.3681   -91576.4722  0.00024 -4.0020
   scf:   69   -91576.3892   -91576.3690   -91576.4731  0.00023 -4.0020
   scf:   70   -91576.3892   -91576.3709   -91576.4750  0.00021 -4.0019
   scf:   71   -91576.3892   -91576.3727   -91576.4768  0.00022 -4.0019
   scf:   72   -91576.3891   -91576.3759   -91576.4801  0.00021 -4.0019
   scf:   73   -91576.3891   -91576.3782   -91576.4823  0.00019 -4.0019
   scf:   74   -91576.3891   -91576.3802   -91576.4844  0.00014 -4.0020
   scf:   75   -91576.3892   -91576.3810   -91576.4851  0.00012 -4.0020
   scf:   76   -91576.3892   -91576.3813   -91576.4854  0.00009 -4.0020

SCF Convergence by dMax criterion
max |DM_out - DM_in|:     0.00009357
SCF cycle converged after   76 iterations

Using DM_out to compute the final energy and forces

siesta: E_KS(eV) =           -91576.3892

siesta: E_KS - E_eggbox =    -91576.3892

siesta: Atomic forces (eV/Ang):
     1   -0.127714   -0.114547    0.001153
     2   -0.014519   -0.176336   -0.069240
     3   -0.017758   -0.174209   -0.072228
     4    0.129145   -0.169354   -0.060149
     5   -0.135148    0.009515   -0.120624
     6    0.030580    0.004638   -0.142059
     7    0.007363    0.021034   -0.145957
     8    0.142847    0.000034   -0.061205
     9   -0.140366   -0.011317   -0.066403
    10   -0.001865   -0.009620   -0.148646
    11   -0.009586   -0.007243   -0.156198
    12    0.117930   -0.014870   -0.130544
    13   -0.107652    0.158902   -0.107329
    14    0.032641    0.158311   -0.090437
    15   -0.004784    0.160884   -0.137893
    16    0.107663    0.123086   -0.020982
    17   -0.140257   -0.193141    0.216866
    18    0.018454   -0.177922    0.225022
    19    0.017243   -0.168727    0.237534
    20    0.162159   -0.112465    0.264627
    21   -0.184469   -0.002477    0.180320
    22   -0.013014    0.017352    0.163743
    23   -0.019914    0.024393    0.180924
    24    0.144428    0.003103    0.163778
    25   -0.153977   -0.027341    0.199625
    26    0.020722    0.002285    0.172760
    27    0.002054   -0.015658    0.205110
    28    0.189002    0.005036    0.217510
    29   -0.148975    0.158757    0.162000
    30    0.009652    0.204946    0.126811
    31   -0.036501    0.181366    0.134225
    32    0.127181    0.170071    0.132444
    33   -0.160422   -0.111443    0.108037
    34    0.001797   -0.142976    0.184085
    35   -0.012821   -0.149012    0.192180
    36    0.133159   -0.133821    0.161983
    37   -0.143863    0.015646    0.282715
    38    0.045311    0.028406    0.233023
    39    0.016827    0.022861    0.189320
    40    0.156221    0.024359    0.180227
    41   -0.187557    0.005359    0.170890
    42   -0.024903    0.021613    0.233448
    43   -0.018191    0.004150    0.201106
    44    0.142518    0.009616    0.191497
    45   -0.178417    0.154194    0.189763
    46    0.017105    0.179122    0.183639
    47    0.014232    0.169257    0.188149
    48    0.178713    0.136093    0.203690
    49   -0.282020   -0.025016   -0.114362
    50    0.177672   -0.269073   -0.427103
    51   -0.038962   -0.175859   -0.280514
    52    0.149527   -0.141474   -0.347952
    53   -0.029429    0.069691   -0.335036
    54    0.035724   -0.020190   -0.193652
    55    0.023464   -0.001237   -0.231710
    56    0.363972   -0.279438   -0.284806
    57   -0.203826    0.058403   -0.284165
    58    0.008526   -0.018733   -0.239830
    59   -0.022588   -0.027521   -0.250753
    60    0.210018   -0.006204   -0.326425
    61   -0.121430    0.086947   -0.270635
    62    0.028729    0.154493   -0.303527
    63    0.036998    0.164486   -0.244299
    64    0.144101    0.103874   -0.379734
    65   -0.611325    0.239661    0.594555
    66   -0.264873   -0.197509   -0.411950
    67    0.441179    0.021258   -0.214418
----------------------------------------
   Tot    0.027734   -0.001530    0.001993
----------------------------------------
   Max    0.611325
   Res    0.170977    sqrt( Sum f_i^2 / 3N )
----------------------------------------
   Max    0.611325    constrained

Stress-tensor-Voigt (kbar):       12.87       15.84        2.72       -0.24        0.19        0.11
(Free)E + p*V (eV/cell)   -91623.0625
Target enthalpy (eV/cell)   -91576.4933

siesta: Eigenvalues (eV):
  ik is    eps
   1  1 -23.69 -12.68 -12.17 -11.53 -11.47 -11.36 -11.13 -11.08 -10.74 -10.64
        -10.53 -10.44 -10.38 -10.37 -10.36 -10.33 -10.33 -10.30 -10.26 -10.23
        -10.22 -10.21 -10.20 -10.18 -10.13  -9.90  -9.87  -9.85  -9.81  -9.78
         -9.76  -9.75  -9.74  -9.73  -9.72  -9.71  -9.70  -9.70  -9.69  -9.65
         -9.63  -9.62  -9.61  -9.59  -9.58  -9.57  -9.55  -9.53  -9.51  -9.50
         -9.49  -9.48  -9.47  -9.45  -9.44  -9.42  -9.40  -9.37  -9.35  -9.31
         -9.28  -9.24  -9.24  -9.23  -9.21  -9.17  -9.15  -9.13  -9.12  -9.09
         -9.05  -9.04  -9.02  -9.02  -8.97  -8.96  -8.94  -8.93  -8.92  -8.91
         -8.91  -8.89  -8.87  -8.85  -8.84  -8.82  -8.80  -8.79  -8.78  -8.77
         -8.76  -8.75  -8.73  -8.72  -8.70  -8.69  -8.67  -8.66  -8.66  -8.65
         -8.62  -8.61  -8.60  -8.59  -8.58  -8.57  -8.56  -8.55  -8.55  -8.54
         -8.53  -8.52  -8.51  -8.51  -8.48  -8.47  -8.45  -8.45  -8.44  -8.42
         -8.41  -8.40  -8.39  -8.39  -8.37  -8.36  -8.35  -8.33  -8.33  -8.32
         -8.30  -8.29  -8.29  -8.29  -8.27  -8.27  -8.24  -8.21  -8.19  -8.17
         -8.15  -8.15  -8.14  -8.12  -8.12  -8.10  -8.09  -8.08  -8.07  -8.07
         -8.06  -8.04  -8.03  -8.02  -8.01  -8.00  -8.00  -7.99  -7.98  -7.97
         -7.96  -7.95  -7.93  -7.92  -7.91  -7.90  -7.88  -7.88  -7.87  -7.86
         -7.85  -7.83  -7.82  -7.81  -7.80  -7.79  -7.79  -7.78  -7.78  -7.76
         -7.75  -7.73  -7.73  -7.71  -7.68  -7.67  -7.65  -7.65  -7.63  -7.62
         -7.60  -7.58  -7.57  -7.56  -7.54  -7.52  -7.50  -7.50  -7.48  -7.47
         -7.47  -7.47  -7.46  -7.45  -7.43  -7.43  -7.42  -7.39  -7.39  -7.37
         -7.36  -7.36  -7.34  -7.33  -7.32  -7.31  -7.30  -7.29  -7.28  -7.27
         -7.27  -7.25  -7.24  -7.23  -7.22  -7.21  -7.21  -7.20  -7.18  -7.18
         -7.16  -7.15  -7.14  -7.11  -7.11  -7.10  -7.09  -7.08  -7.07  -7.06
         -7.06  -7.04  -7.04  -7.03  -7.02  -7.01  -6.98  -6.97  -6.95  -6.94
         -6.92  -6.90  -6.89  -6.87  -6.86  -6.86  -6.85  -6.84  -6.83  -6.82
         -6.80  -6.80  -6.77  -6.76  -6.75  -6.73  -6.72  -6.71  -6.69  -6.67
         -6.66  -6.65  -6.63  -6.60  -6.59  -6.57  -6.56  -6.54  -6.53  -6.52
         -6.51  -6.50  -6.49  -6.48  -6.47  -6.46  -6.45  -6.44  -6.43  -6.42
         -6.41  -6.40  -6.40  -6.40  -6.39  -6.38  -6.38  -6.37  -6.36  -6.35
         -6.34  -6.34  -6.32  -6.32  -6.31  -6.30  -6.29  -6.28  -6.27  -6.26
         -6.26  -6.26  -6.24  -6.21  -6.20  -6.20  -6.19  -6.19  -6.18  -6.17
         -6.16  -6.14  -6.12  -6.10  -6.09  -6.07  -6.07  -6.06  -6.05  -6.02
         -6.01  -6.00  -5.90  -5.87  -5.86  -5.85  -5.84  -5.83  -5.81  -5.80
         -5.76  -5.75  -5.72  -5.71  -5.65  -5.59  -5.47  -5.22  -4.82  -4.81
         -4.75  -4.64  -4.44  -4.42  -4.19  -4.10  -3.89  -3.81  -3.77  -3.75
         -3.70  -3.68  -3.63  -3.47  -3.21  -3.18  -3.14  -3.02  -2.97  -2.93
         -2.89  -2.83  -2.71  -2.70  -2.66  -2.58  -2.46  -2.35  -2.26  -2.09
         -2.06  -2.05  -2.03  -1.43  -1.30  -1.24  -1.16  -1.14  -1.10  -1.09
         -0.96  -0.94  -0.87  -0.81  -0.74  -0.70  -0.64  -0.43  -0.28  -0.10
          0.04   0.20   0.40   0.58   0.60   0.87   0.91   0.97   1.04   1.05
          1.15   1.28   1.33   1.40   1.51   1.54   1.66   1.68   1.74   1.86
          1.95   2.01   2.05   2.14   2.25   2.38   2.74   2.84   2.88   2.96
          3.00   3.06   3.10   3.22   3.47   3.52   3.61   3.64   3.84   3.89
          3.91   3.98   3.99   4.02   4.27   4.58   4.68   4.80   4.87   4.89
          4.92   4.95   4.99   5.07   5.08   5.21   5.28   5.37   5.48   5.58
          5.72   5.75   5.82   5.99   6.03   6.09   6.20   6.24   6.25   6.29
          6.34   6.43   6.49   6.56   6.57   6.60   6.63   6.73   6.78   6.85
          6.96   7.12   7.19   7.37   7.56   7.59   7.61   7.70   7.74   7.81
          7.83   7.89   7.92   7.97   8.02   8.10   8.24   8.37   8.50   8.71
          8.74   8.79   8.83   8.91   8.91   9.03   9.04   9.04   9.17   9.25
          9.39   9.41   9.58   9.69   9.77   9.83   9.89   9.98  10.00  10.35
         10.52  10.57  10.61  10.67  10.68  10.71  10.74  10.79  10.80  10.82
         10.90  10.92  10.95  11.01  11.06  11.25  11.30  11.41  11.57  11.66
         11.72  11.81  11.83  11.88  11.91  11.92  11.98  12.07  12.12  12.18
         12.45  12.51  12.55  12.62  12.70  12.72  12.81  12.90  13.00  13.04
         13.09  13.16  13.26  13.37  13.46  13.53  13.57  13.76  13.77  14.02
         14.20  14.63  14.66  14.70  14.74  14.80  14.82  14.94  15.00  15.04
         15.12  15.14  15.24  15.30  15.35  15.46  15.52  15.58  15.73  15.86
         15.92  16.10  16.32  16.49  16.51  16.55  16.57  16.64  16.73  16.90
         16.93  17.01  17.09  17.11  17.29  17.38  17.51  17.54  17.61  17.70
         17.83  17.98  18.19  18.32  18.39  18.47  18.55  18.65  18.87  18.97
         19.02  19.08  19.17  19.25  19.34  19.44  19.51  19.60  19.68  19.86
         19.95  20.03  20.07  20.14  20.17  20.27  20.40  20.59  20.70  20.82
         20.85  21.00  21.09  21.26  21.32  21.53  21.59  21.74  21.83  21.93
         22.01  22.05  22.15  22.17  22.20  22.26  22.29  22.37  22.45  22.54
         22.54  22.64  22.73  22.89  22.95  23.09  23.17  23.28  23.49  23.55
         23.55  23.75  23.84  23.86  23.96  24.00  24.06  24.09  24.13  24.23
         24.29  24.31  24.33  24.36  24.46  24.72  24.83  24.92  24.97  25.04
         25.06  25.13  25.23  25.25  25.36  25.43  25.48  25.59  25.70  25.81
         25.82  25.88  25.99  26.02  26.09  26.12  26.14  26.18  26.24  26.30
         26.38  26.40  26.44  26.48  26.52  26.64  26.67  26.71  26.83  26.90
         27.00  27.04  27.06  27.11  27.16  27.31  27.35  27.42  27.50  27.54
         27.55  27.61  27.68  27.72  27.85  27.92  27.94  28.02  28.16  28.22
         28.30  28.38  28.39  28.46  28.55  28.72  28.74  28.80  28.83  28.90
         28.93  28.96  29.15  29.21  29.24  29.28  29.35  29.37  29.47  29.48
         29.53  29.60  29.67  29.73  29.79  29.90  29.96  30.12  30.17  30.26
         30.33  30.39  30.48  30.49  30.59  30.67  30.78  30.82  30.83  30.92
         31.01  31.06  31.10  31.15  31.19  31.25  31.32  31.43  31.52  31.62
         31.67  31.73  31.85  31.95  32.03  32.07  32.13  32.15  32.25  32.28
         32.31  32.35  32.39  32.45  32.51  32.55  32.59  32.68  32.69  32.72
         32.85  32.91  32.94  32.96  33.03  33.23  33.25  33.26  33.33  33.38
         33.43  33.44  33.48  33.58  33.66  33.68  33.76  33.79  33.86  33.93
         33.96  34.07  34.16  34.24  34.32  34.46  34.49  34.61  34.68  34.77
         34.85  34.92  34.94  35.00  35.15  35.27  35.28  35.31  35.40  35.47
         35.56  35.71  35.74  35.78  35.94  35.98  36.05  36.12  36.20  36.21
         36.33  36.53  36.71  36.87  36.91  36.97  37.04  37.12  37.23  37.34
         37.39  37.47  37.50  37.64  37.73  37.76  37.80  37.90  37.98  38.17
         38.28  38.31  38.41  38.46  38.52  38.66  38.73  39.03  39.12  39.16
         39.34  39.38  39.54  39.85  39.97  40.06  40.11  40.23  40.37  40.38
         40.47  40.53  40.55  40.64  40.71  40.82  40.94  41.00  41.03  41.06
         41.21  41.28  41.38  41.59  41.82  41.85  41.93  41.98  42.04  42.15
         42.27  42.42  42.54  42.59  42.68  42.90  43.04  43.13  43.18  43.20
         43.25  43.34  43.51  43.70  43.85  43.88  43.94  44.01  44.10  44.16
         44.31  44.48  44.64  44.68  44.92  45.09  45.39  45.67  45.84  45.91
         46.09  46.18  46.24  46.29  46.46  46.57  46.64  46.71  46.91  47.14
         47.54  47.77  47.85  47.99  48.09  48.33  48.39  48.57  48.68  48.80
         49.10  49.64  49.76  50.28  50.37  50.70  54.98  55.13  59.46  60.33
         60.94  66.47  70.20
siesta: Fermi energy =      -4.002019 eV

siesta: Program's energy decomposition (eV):
siesta: Ebs     =     -5596.443337
siesta: Eions   =     74448.861464
siesta: Ena     =      3161.592297
siesta: Ekin    =     41785.019428
siesta: Enl     =    -17194.644572
siesta: DEna    =       611.560009
siesta: DUscf   =        55.239809
siesta: DUext   =         0.000000
siesta: Exc     =    -45546.294670
siesta: eta*DQ  =         0.000000
siesta: Emadel  =         0.000000
siesta: Emeta   =         0.000000
siesta: Emolmec =         0.000000
siesta: Ekinion =         0.000000
siesta: Eharris =    -91576.389163
siesta: Etot    =    -91576.389163
siesta: FreeEng =    -91576.493283

siesta: Final energy (eV):
siesta:  Band Struct. =   -5596.443337
siesta:       Kinetic =   41785.019428
siesta:       Hartree = 1199287.906253
siesta:    Ext. field =       0.000000
siesta:   Exch.-corr. =  -45546.294670
siesta:  Ion-electron =-2430955.064940
siesta:       Ion-ion = 1143852.044767
siesta:       Ekinion =       0.000000
siesta:         Total =  -91576.389163

siesta: Atomic forces (eV/Ang):
siesta:      1   -0.127714   -0.114547    0.001153
siesta:      2   -0.014519   -0.176336   -0.069240
siesta:      3   -0.017758   -0.174209   -0.072228
siesta:      4    0.129145   -0.169354   -0.060149
siesta:      5   -0.135148    0.009515   -0.120624
siesta:      6    0.030580    0.004638   -0.142059
siesta:      7    0.007363    0.021034   -0.145957
siesta:      8    0.142847    0.000034   -0.061205
siesta:      9   -0.140366   -0.011317   -0.066403
siesta:     10   -0.001865   -0.009620   -0.148646
siesta:     11   -0.009586   -0.007243   -0.156198
siesta:     12    0.117930   -0.014870   -0.130544
siesta:     13   -0.107652    0.158902   -0.107329
siesta:     14    0.032641    0.158311   -0.090437
siesta:     15   -0.004784    0.160884   -0.137893
siesta:     16    0.107663    0.123086   -0.020982
siesta:     17   -0.140257   -0.193141    0.216866
siesta:     18    0.018454   -0.177922    0.225022
siesta:     19    0.017243   -0.168727    0.237534
siesta:     20    0.162159   -0.112465    0.264627
siesta:     21   -0.184469   -0.002477    0.180320
siesta:     22   -0.013014    0.017352    0.163743
siesta:     23   -0.019914    0.024393    0.180924
siesta:     24    0.144428    0.003103    0.163778
siesta:     25   -0.153977   -0.027341    0.199625
siesta:     26    0.020722    0.002285    0.172760
siesta:     27    0.002054   -0.015658    0.205110
siesta:     28    0.189002    0.005036    0.217510
siesta:     29   -0.148975    0.158757    0.162000
siesta:     30    0.009652    0.204946    0.126811
siesta:     31   -0.036501    0.181366    0.134225
siesta:     32    0.127181    0.170071    0.132444
siesta:     33   -0.160422   -0.111443    0.108037
siesta:     34    0.001797   -0.142976    0.184085
siesta:     35   -0.012821   -0.149012    0.192180
siesta:     36    0.133159   -0.133821    0.161983
siesta:     37   -0.143863    0.015646    0.282715
siesta:     38    0.045311    0.028406    0.233023
siesta:     39    0.016827    0.022861    0.189320
siesta:     40    0.156221    0.024359    0.180227
siesta:     41   -0.187557    0.005359    0.170890
siesta:     42   -0.024903    0.021613    0.233448
siesta:     43   -0.018191    0.004150    0.201106
siesta:     44    0.142518    0.009616    0.191497
siesta:     45   -0.178417    0.154194    0.189763
siesta:     46    0.017105    0.179122    0.183639
siesta:     47    0.014232    0.169257    0.188149
siesta:     48    0.178713    0.136093    0.203690
siesta:     49   -0.282020   -0.025016   -0.114362
siesta:     50    0.177672   -0.269073   -0.427103
siesta:     51   -0.038962   -0.175859   -0.280514
siesta:     52    0.149527   -0.141474   -0.347952
siesta:     53   -0.029429    0.069691   -0.335036
siesta:     54    0.035724   -0.020190   -0.193652
siesta:     55    0.023464   -0.001237   -0.231710
siesta:     56    0.363972   -0.279438   -0.284806
siesta:     57   -0.203826    0.058403   -0.284165
siesta:     58    0.008526   -0.018733   -0.239830
siesta:     59   -0.022588   -0.027521   -0.250753
siesta:     60    0.210018   -0.006204   -0.326425
siesta:     61   -0.121430    0.086947   -0.270635
siesta:     62    0.028729    0.154493   -0.303527
siesta:     63    0.036998    0.164486   -0.244299
siesta:     64    0.144101    0.103874   -0.379734
siesta:     65   -0.611325    0.239661    0.594555
siesta:     66   -0.264873   -0.197509   -0.411950
siesta:     67    0.441179    0.021258   -0.214418
siesta: ----------------------------------------
siesta:    Tot    0.027734   -0.001530    0.001993

siesta: Stress tensor (static) (eV/Ang**3):
siesta:     0.008032   -0.000148    0.000072
siesta:    -0.000148    0.009889    0.000119
siesta:     0.000072    0.000119    0.001698

siesta: Cell volume =       7121.044177 Ang**3

siesta: Pressure (static):
siesta:                Solid            Molecule  Units
siesta:          -0.00007123         -0.00008684  Ry/Bohr**3
siesta:          -0.00653966         -0.00797300  eV/Ang**3
siesta:         -10.47780880        -12.77429358  kBar
(Free)E+ p_basis*V_orbitals  =      -91503.816087
(Free)Eharris+ p_basis*V_orbitals  =      -91503.816088

siesta: Electric dipole (a.u.)  =    0.000000   -0.000000    1.556947
siesta: Electric dipole (Debye) =    0.000000   -0.000000    3.957367
>> End of run:  10-APR-2024   5:14:01
Job completed
