SystemName     geometry-18                                                                     
SystemLabel     geometry-18                                                                     
XML.Write              T     # default value
XML.AbortOnErrors              F     # default value
XML.AbortOnWarnings              F     # default value
timer_report_threshold          0.000000000         # default value
UseTreeTimer              F     # default value
alloc_report_level         0     # default value
alloc_report_threshold          0.000000000         # default value
xc.functional     GGA                                                                             
xc.authors     PBE                                                                             
MM.Cutoff          30.00000000     Bohr     # default value
MM.UnitsEnergy     eV     # default value
MM.UnitsDistance     Ang     # default value
WriteIonPlotFiles              F     # default value
Atom.Debug.KB.Generation              F     # default value
KB.New.Reference.Orbitals              F     # default value
user-basis              F     # default value
user-basis-netcdf              F     # default value
ReparametrizePseudos              F     # default value
Restricted.Radial.Grid              T     # default value
Rmax.Radial.Grid          0.000000000         # default value
PAO.BasisSize     standard            # default value
PAO.BasisType     split          # default value
PAO.SoftDefault              F     # default value
PAO.SoftInnerRadius         0.9000000000         # default value
PAO.SoftPotential          40.00000000         # default value
PAO.SplitNorm         0.1500000000         # default value
PAO.SplitNormH         -1.000000000         # default value
Number_of_species              5
%block Chemical_species_label
     1 1 H.1
     2 8 O.2
     3 79 Au.gga.3
     4 79 Au.gga.4
     5 79 Au.gga.5
%endblock Chemical_species_label
%block PAO.BasisSizes
     Au.gga.3	DZP
%endblock PAO.BasisSizes
%block PAO.Basis
 H.1 2 0.46527
             n=1 0 2 E 99.93138 2.59932
             4.20357 1.84463
             n=2 1 1 E 24.56504 2.20231
 (Backspace to) |            n=2 1 1 E 24.56504 2.20231|
             n=2 1 1 E 24.56504 2.20231
             3.52816
 O.2 3 -0.24233
 (Backspace to) |O.2 3 -0.24233|
 O.2 3 -0.24233
             n=2 0 2 E 23.36061 3.39721
             4.50769 2.64066
             n=2 1 2 E 2.78334 5.14253
 (Backspace to) |            n=2 1 2 E 2.78334 5.14253|
             n=2 1 2 E 2.78334 5.14253
             6.14996 2.59356
             n=3 2 1 E 63.98188 0.16104
 (Backspace to) |            n=3 2 1 E 63.98188 0.16104|
             n=3 2 1 E 63.98188 0.16104
             3.54403
 Au.gga.4 2
 (Backspace to) |Au.gga.4 2|
 Au.gga.4 2
             n=6 0 2 P 1
             7.24700 5.71500
             n=5 2 2
 (Backspace to) |            n=5 2 2|
             n=5 2 2
             5.10700 2.83800
 Au.gga.5 2
 (Backspace to) |Au.gga.5 2|
 Au.gga.5 2
             n=6 0 2 P 1
             9.07500 5.78700
             n=5 2 2
 (Backspace to) |            n=5 2 2|
             n=5 2 2
             6.55700 2.87400
%endblock PAO.Basis
%endblock PAO.Basis
FilterCutoff          0.000000000     Ry     # default value
FilterTol          0.000000000     Ry     # default value
KB.Rmax          6.000000000     Bohr     # default value
PAO.EnergyShift         0.7349798845E-02         Ry
# above item originally: PAO.EnergyShift         0.1000000000     eV        
PAO.SplitTailNorm              F     # default value
PAO.FixSplitTable              F     # default value
PAO.NewSplitCode              F     # default value
PAO.Filter              F     # default value
PAO.Filter              F     # default value
PAO.Filter              F     # default value
PAO.OldStylePolorbs              T     # default value
PAO.SplitTailNorm              F     # default value
PAO.FixSplitTable              F     # default value
PAO.NewSplitCode              F     # default value
Vna.Filter              F     # default value
FilterCutoff          0.000000000     Ry     # default value
FilterTol          0.000000000     Ry     # default value
KB.Rmax          6.000000000     Bohr     # default value
PAO.EnergyShift         0.7349798845E-02         Ry
# above item originally: PAO.EnergyShift         0.1000000000     eV        
PAO.SplitTailNorm              F     # default value
PAO.FixSplitTable              F     # default value
PAO.NewSplitCode              F     # default value
PAO.Filter              F     # default value
PAO.Filter              F     # default value
PAO.Filter              F     # default value
PAO.Filter              F     # default value
PAO.Filter              F     # default value
PAO.OldStylePolorbs              T     # default value
PAO.SplitTailNorm              F     # default value
PAO.FixSplitTable              F     # default value
PAO.NewSplitCode              F     # default value
Vna.Filter              F     # default value
PCC.Filter              F     # default value
FilterCutoff          0.000000000     Ry     # default value
FilterTol          0.000000000     Ry     # default value
KB.Rmax          6.000000000     Bohr     # default value
PAO.EnergyShift         0.7349798845E-02         Ry
# above item originally: PAO.EnergyShift         0.1000000000     eV        
PAO.SplitTailNorm              F     # default value
PAO.FixSplitTable              F     # default value
PAO.NewSplitCode              F     # default value
PAO.Filter              F     # default value
PAO.Keep.Findp.Bug              F     # default value
PAO.Filter              F     # default value
PAO.Filter              F     # default value
PAO.Filter              F     # default value
PAO.OldStylePolorbs              T     # default value
PAO.SplitTailNorm              F     # default value
PAO.FixSplitTable              F     # default value
PAO.NewSplitCode              F     # default value
PAO.Filter              F     # default value
Vna.Filter              F     # default value
PCC.Filter              F     # default value
FilterCutoff          0.000000000     Ry     # default value
FilterTol          0.000000000     Ry     # default value
KB.Rmax          6.000000000     Bohr     # default value
PAO.EnergyShift         0.7349798845E-02         Ry
# above item originally: PAO.EnergyShift         0.1000000000     eV        
PAO.SplitTailNorm              F     # default value
PAO.FixSplitTable              F     # default value
PAO.NewSplitCode              F     # default value
PAO.Filter              F     # default value
PAO.Filter              F     # default value
PAO.Filter              F     # default value
PAO.Filter              F     # default value
PAO.OldStylePolorbs              T     # default value
PAO.SplitTailNorm              F     # default value
PAO.FixSplitTable              F     # default value
PAO.NewSplitCode              F     # default value
PAO.Filter              F     # default value
Vna.Filter              F     # default value
PCC.Filter              F     # default value
FilterCutoff          0.000000000     Ry     # default value
FilterTol          0.000000000     Ry     # default value
KB.Rmax          6.000000000     Bohr     # default value
PAO.EnergyShift         0.7349798845E-02         Ry
# above item originally: PAO.EnergyShift         0.1000000000     eV        
PAO.SplitTailNorm              F     # default value
PAO.FixSplitTable              F     # default value
PAO.NewSplitCode              F     # default value
PAO.Filter              F     # default value
PAO.Filter              F     # default value
PAO.Filter              F     # default value
PAO.Filter              F     # default value
PAO.OldStylePolorbs              T     # default value
PAO.SplitTailNorm              F     # default value
PAO.FixSplitTable              F     # default value
PAO.NewSplitCode              F     # default value
PAO.Filter              F     # default value
Vna.Filter              F     # default value
PCC.Filter              F     # default value
PAO.BasisType     split          # default value
Atom-Setup-Only              F     # default value
UseStructFile              F     # default value
MD.UseStructFile              F     # default value
LatticeConstant          1.889726878           Bohr
# above item originally: LatticeConstant          1.000000000     Ang       
%block LatticeVectors
     11.975725345373620     0.000000000000000     0.000000000000000
     0.000000000000000     10.371282377926580     0.000000000000000
     0.000000000000000     0.000000000000000     57.333623994331909
AtomicCoordinatesFormat     Ang                                                                             
NumberOfAtoms             67
ZM.UnitsLength     Bohr           # default value
ZM.UnitsAngle     rad            # default value
ZM.ForceTolLength         0.1555740000E-02 Ry/Bohr     # default value
ZM.ForceTolAngle         0.3565490000E-02 Ry/rad     # default value
ZM.MaxDisplLength         0.2000000000     Bohr     # default value
ZM.MaxDisplAngle         0.3000000000E-02 rad     # default value
ZM.CalcAllForces              F     # default value
%block AtomicCoordinatesAndAtomicSpecies
     -0.003013496     -0.077259791     24.824901750 5
      2.966201961     -0.092824817     24.829229519 5
      5.925854334     -0.102277298     24.870263924 5
      8.908832965     -0.080443264     24.895225378 5
      1.489837337      2.474860510     24.787569042 5
      4.443619428      2.476475139     24.835139265 5
      7.421619453      2.484981339     24.888686506 5
     10.388202550      2.476826843     24.821718212 5
      0.001570628      5.044527346     24.867590206 5
      2.965648128      5.057387519     24.813703910 5
      5.933194957      5.055150965     24.843084406 5
      8.899412469      5.047428064     24.948579264 5
      1.507769710      7.632771212     24.897067878 5
      4.448594007      7.634146110     24.813767003 5
      7.392280918      7.633267680     24.967369778 5
     10.377234901      7.629951064     24.935899060 5
      1.493252110      0.800709191     27.390536402 5
      4.436875683      0.804283794     27.410308390 5
      7.397241545      0.814893228     27.416548297 5
     10.372177393      0.828615080     27.403165789 5
     -0.007893839      3.355406408     27.352285866 5
      2.953662216      3.372562945     27.345728600 5
      5.922601606      3.373457086     27.374600521 5
      8.885773445      3.379712848     27.481649181 5
      1.487596808      5.938742759     27.382127184 5
      4.433481648      5.977996640     27.340824333 5
      7.406624060      5.954147191     27.451944724 5
     10.379272367      5.931887671     27.436386248 5
      0.038866690      8.544663555     27.354366543 5
      2.944711217      8.549351607     27.454040868 5
      5.887791970      8.537402672     27.483326680 5
      8.896677615      8.529949685     27.432469149 5
     -0.015619214      1.706475870     29.854504272 3
      2.932041473      1.707333803     29.894559309 3
      5.932525105      1.698678480     29.860905906 3
      8.917137264      1.673116525     29.945735392 3
      1.453099843      4.279179165     29.828601257 3
      4.431733888      4.293465807     29.778793358 3
      7.388225310      4.258084345     29.942541507 3
     10.363883194      4.238879623     29.931789262 3
     -0.027746213      6.840770022     29.819923894 3
      2.974228414      6.850469851     29.851145603 3
      5.930662448      6.824275992     29.907037808 3
      8.888753800      6.804390808     29.930609645 3
      1.433054115      9.432148335     29.987600384 3
      4.413292145      9.447729450     29.954296112 3
      7.445064057      9.390552428     29.900320017 3
     10.390350496      9.381173596     29.806449375 3
     -0.237081629     -0.033799618     32.328234537 3
      3.151771961      0.059587233     32.551022971 3
      5.984606232      0.029115304     32.455206020 3
      8.756346468      0.051470895     32.668595631 3
      1.464131153      2.912837076     32.284007910 3
      4.503053763      2.690343720     32.333816135 3
      7.400839841      2.632520282     32.546185127 3
     10.268662905      2.606724639     32.848563333 3
     -0.160854118      5.222546227     32.462282155 3
      3.026089048      5.323504886     32.450123037 3
      5.933568067      5.224017823     32.572796219 3
      8.824880455      5.144990966     32.680093576 3
      1.391989824      7.752351014     32.406297980 3
      4.425951812      7.801060269     32.534495803 3
      7.401787057      7.749525183     32.583324695 3
     10.293933781      7.698490024     32.612121760 3
      1.759133077      1.308642748     33.876011306 2
      2.098116697      1.639196856     34.709180326 1
     -0.709988230      1.198046984     33.584449926 1
UseSaveData              F
MD.UseSaveXV              F
MD.UseSaveZM              F     # default value
WriteCoorInitial              T     # default value
MD.TypeOfRun     CG                                                                              
MaxBondDistance          6.000000000     Bohr     # default value
Output-Structure-Only              F     # default value
WriteCoorXmol              F
#:physical? MaxWalltime              F
MaxWalltime         0.1797693135+309     # default value
#:physical? MaxWalltime.Slack              F
MaxWalltime.Slack          5.000000000         # default value
SpinPolarized              F     # default value
NonCollinearSpin              F     # default value
HSetupOnly              F     # default value
LongOutput              F     # default value
WriteDenchar              F     # default value
WriteMullikenPop              0
WriteHirshfeldPop              F
WriteVoronoiPop              F
PartialChargesAtEveryGeometry              F     # default value
PartialChargesAtEveryScfStep              F     # default value
MeshCutoff          699.9937475             Ry
# above item originally: MeshCutoff          9523.985109     eV        
NetCharge          0.000000000         # default value
MinSCFIterations              0
MaxSCFIterations            500
SCFMustConverge              T
MixHamiltonian              F     # default value
TS.MixH              F     # default value
MixCharge              F     # default value
Compat-pre-v4-DM-H              F     # default value
SCF.MixAfterConvergence              F     # default value
SCF.Recompute-H-After-Scf              F     # default value
DM.NumberPulay              3
DM.NumberBroyden         0     # default value
DM.FIRE.Mixing              F     # default value
DM.MixSCF1              F     # default value
DM.PulayOnFile              F     # default value
DM.Pulay.Avoid.First.After.Kick              F     # default value
DM.MixingWeight         0.3000000000E-01
DM.OccupancyTolerance         0.1000000000E-11     # default value
DM.NumberKick         0     # default value
DM.KickMixingWeight         0.5000000000         # default value
DM.Tolerance         0.1000000000E-03
DM.RequireEnergyConvergence              F     # default value
DM.EnergyTolerance         0.7349806700E-06 Ry     # default value
DM.RequireHarrisConvergence              F     # default value
DM.HarrisTolerance         0.7349806700E-06 Ry     # default value
MonitorForcesInSCF              F     # default value
UseSaveData              F
DM.UseSaveDM              F
NeglNonOverlapInt              F     # default value
SolutionMethod     diagon                                                                          
Diag.DivideAndConquer              T     # default value
Diag.Memory          1.000000000         # default value
ElectronicTemperature         0.3674899422E-02         Ry
# above item originally: ElectronicTemperature          50.00000000     meV       
FixSpin              F     # default value
ON.MaxNumIter      1000     # default value
ON.etol         0.1000000000E-07     # default value
ON.eta          0.000000000     Ry     # default value
ON.eta_alpha          0.000000000     Ry     # default value
ON.eta_beta          0.000000000     Ry     # default value
On.RcLWF          9.500000000     Bohr     # default value
ON.UseSaveLWF              F     # default value
ON.functional     kim     # default value
ON.ChemicalPotentialUse              F     # default value
ON.ChemicalPotential              F     # default value
ON.ChemicalPotentialRc          9.500000000     Bohr     # default value
ON.ChemicalPotentialTemperature         0.5000000000E-01 Ry     # default value
ON.ChemicalPotentialOrder       100     # default value
MD.VariableCell              F     # default value
compat-pre-v4-dynamics              F     # default value
MD.TypeOfRun     CG                                                                              
MD.UseSaveCG              F     # default value
Optim.Broyden              F     # default value
MD.NumCGsteps         0     # default value
MD.MaxCGDispl         0.2000000000     Bohr     # default value
MD.MaxForceTol         0.1555739508E-02    Ry/Bohr
# above item originally: MD.MaxForceTol         0.4000000000E-01 eV/Ang    
MD.MaxStressTol         0.6797730000E-04 Ry/Bohr**3     # default value
GeometryMustConverge              F     # default value
MD.InitialTimeStep         1     # default value
MD.FinalTimeStep         1     # default value
MD.LengthTimeStep          1.000000000     fs     # default value
MD.Quench              F     # default value
MD.FireQuench              F     # default value
MD.InitialTemperature          0.000000000     K     # default value
MD.TargetTemperature          0.000000000     K     # default value
MD.TargetPressure          0.000000000     Ry/Bohr**3     # default value
MD.NoseMass          100.0000000     Ry*fs**2     # default value
MD.ParrinelloRahmanMass          100.0000000     Ry*fs**2     # default value
MD.AnnealOption     TemperatureAndPressure     # default value
MD.TauRelax          100.0000000     fs     # default value
MD.BulkModulus         0.6797730000E-02 Ry/Bohr**3     # default value
MD.FCDispl         0.4000000000E-01 Bohr     # default value
MD.FCfirst         1     # default value
MD.FClast        67     # default value
UseSpatialDecomposition              F     # default value
UseDomainDecomposition              F     # default value
Harris_functional              F     # default value
WriteKpoints              F
WriteForces              T
WriteDM              T     # default value
WriteDM.NetCDF              F     # default value
WriteDM.History.NetCDF              F     # default value
WriteDMHS.NetCDF              F     # default value
WriteDMHS.History.NetCDF              F     # default value
SCF.Read.Charge.NetCDF              F     # default value
SCF.Read.Deformation.Charge.NetCDF              F     # default value
SaveInitialChargeDensity              F     # default value
AnalyzeChargeDensityOnly              F     # default value
UseNewDiagk              F     # default value
WriteBands              F     # default value
WriteKbands              F
WriteEigenvalues              T
WriteCoorStep              F
WriteMDhistory              F
WriteMDXmol              T
UseSaveData              F
SaveHS              F
FixAuxiliaryCell              F     # default value
NaiveAuxiliaryCell              F     # default value
ReInitialiseDM              T     # default value
DM.AllowReuse              T     # default value
DM.AllowExtrapolation              T     # default value
DM.NormalizationTolerance         0.1000000000E-04     # default value
DM.NormalizeDuringSCF              T     # default value
MullikenInSCF              F     # default value
WarningMinimumAtomicDistance          1.000000000     Bohr     # default value
BornCharge              F     # default value
ChangeKgridInMD              F     # default value
Diag.ParallelOverK              F     # default value
MD.RelaxCellOnly              F     # default value
MD.RemoveIntraMolecularPressure              F     # default value
COOP.Write              F     # default value
SaveRho              F
SaveDeltaRho              F
SaveRhoXC              F     # default value
SaveElectrostaticPotential              F
SaveNeutralAtomPotential              F     # default value
SaveTotalPotential              F
SaveIonicCharge              F     # default value
SaveBaderCharge              F     # default value
SaveTotalCharge              F     # default value
Siesta2Wannier90.WriteMmn              F     # default value
Siesta2Wannier90.WriteUnk              F     # default value
Siesta2Wannier90.WriteAmn              F     # default value
Siesta2Wannier90.WriteEig              F     # default value
Siesta2Wannier90.NumberOfBandsUp         0     # default value
Siesta2Wannier90.NumberOfBandsDown         0     # default value
Siesta2Wannier90.NumberOfBands         0     # default value
RcSpatial          0.000000000     Bohr     # default value
ProcessorGridX         1     # default value
ProcessorGridY         1     # default value
ProcessorGridZ         1     # default value
processorY         4     # default value
blocksize        24     # default value
NumberOfEigenStates       983     # default value
TimeReversalSymmetryForKpoints              T     # default value
%block kgrid_Monkhorst_Pack
      1       0       0  0.0
      0       1       0  0.0
      0       0       1  0.0
LongOutput              F     # default value
WriteWaveFunctions              F
ForceAuxCell              F     # default value
AtomicCoordinatesFormat     Ang                                                                             
AtomCoorFormatOut     Ang                        # default value
LatticeConstant          1.889726878           Bohr
# above item originally: LatticeConstant          1.000000000     Ang       
%block DM.InitSpin
SCF.Pulay.Damping         -1.000000000         # default value
SCF.MixingWeightAfterPulay         0.5000000000         # default value
SCF.PulayMinimumHistory         2     # default value
SCF.PulayDmaxRegion          1000.000000         # default value
SCF.LinearMixingAfterPulay              F     # default value
SCF.Pulay.UseSVD              F     # default value
SCF.Pulay.DebugSVD              T     # default value
SCF.Pulay.RcondSVD         0.1000000000E-07     # default value
MeshSubDivisions         2     # default value
LatticeConstant          1.889726878           Bohr
# above item originally: LatticeConstant          1.000000000     Ang       
%block LatticeVectors
     11.975725345373620     0.000000000000000     0.000000000000000
     0.000000000000000     10.371282377926580     0.000000000000000
     0.000000000000000     0.000000000000000     57.333623994331909
PROCS_PER_NODE         4     # default value
PROCS_PER_NODE         4     # default value
DirectPhi              F     # default value
SimulateDoping              F     # default value
SlabDipoleCorrection              F     # default value
Diag.ParallelOverK              F     # default value
LatticeConstant          1.889726878           Bohr
# above item originally: LatticeConstant          1.000000000     Ang       
%block LatticeVectors
     11.975725345373620     0.000000000000000     0.000000000000000
     0.000000000000000     10.371282377926580     0.000000000000000
     0.000000000000000     0.000000000000000     57.333623994331909
Diag.AllInOne              F     # default value
Diag.DivideAndConquer              T     # default value
Diag.NoExpert              F     # default value
Diag.PreRotate              F     # default value
Diag.Use2D              T     # default value
SingleExcitation              F     # default value
OccupationFunction     FD     # default value
OccupationFunction     FD     # default value
SCF.Want.Variational.EKS              F     # default value
DM.FormattedFiles              F     # default value
DM.FormattedInput              F     # default value
DM.FormattedOutput              F     # default value
SCF.Want.Variational.EKS              F     # default value
SCF.Want.Variational.EKS              F     # default value
SCF.Want.Variational.EKS              F     # default value
SCF.Want.Variational.EKS              F     # default value
SCF.Want.Variational.EKS              F     # default value
SCF.Want.Variational.EKS              F     # default value
SCF.Want.Variational.EKS              F     # default value
SCF.Want.Variational.EKS              F     # default value
SCF.Want.Variational.EKS              F     # default value
SCF.Want.Variational.EKS              F     # default value
SCF.Want.Variational.EKS              F     # default value
SCF.Want.Variational.EKS              F     # default value
SCF.Want.Variational.EKS              F     # default value
SCF.Want.Variational.EKS              F     # default value
SCF.Want.Variational.EKS              F     # default value
SCF.Want.Variational.EKS              F     # default value
SCF.Want.Variational.EKS              F     # default value
SCF.Want.Variational.EKS              F     # default value
SCF.Want.Variational.EKS              F     # default value
SCF.Want.Variational.EKS              F     # default value
SCF.Want.Variational.EKS              F     # default value
SCF.Want.Variational.EKS              F     # default value
SCF.Want.Variational.EKS              F     # default value
SCF.Want.Variational.EKS              F     # default value
SCF.Want.Variational.EKS              F     # default value
SCF.Want.Variational.EKS              F     # default value
SCF.Want.Variational.EKS              F     # default value
SCF.Want.Variational.EKS              F     # default value
SCF.Want.Variational.EKS              F     # default value
SCF.Want.Variational.EKS              F     # default value
SCF.Want.Variational.EKS              F     # default value
SCF.Want.Variational.EKS              F     # default value
SCF.Want.Variational.EKS              F     # default value
SCF.Want.Variational.EKS              F     # default value
SCF.Want.Variational.EKS              F     # default value
SCF.Want.Variational.EKS              F     # default value
SCF.Want.Variational.EKS              F     # default value
SCF.Want.Variational.EKS              F     # default value
SCF.Want.Variational.EKS              F     # default value
SCF.Want.Variational.EKS              F     # default value
SCF.Want.Variational.EKS              F     # default value
SCF.Want.Variational.EKS              F     # default value
SCF.Want.Variational.EKS              F     # default value
SCF.Want.Variational.EKS              F     # default value
SCF.Want.Variational.EKS              F     # default value
SCF.Want.Variational.EKS              F     # default value
SCF.Want.Variational.EKS              F     # default value
SCF.Want.Variational.EKS              F     # default value
SCF.Want.Variational.EKS              F     # default value
SCF.Want.Variational.EKS              F     # default value
SCF.Want.Variational.EKS              F     # default value
SCF.Want.Variational.EKS              F     # default value
SCF.Want.Variational.EKS              F     # default value
SCF.Want.Variational.EKS              F     # default value
SCF.Want.Variational.EKS              F     # default value
SCF.Want.Variational.EKS              F     # default value
SCF.Want.Variational.EKS              F     # default value
SCF.Want.Variational.EKS              F     # default value
SCF.Want.Variational.EKS              F     # default value
SCF.Want.Variational.EKS              F     # default value
SCF.Want.Variational.EKS              F     # default value
#:list? Grid.CellSampling              F
WriteCoorXmol              F
WriteCoorCerius              F     # default value
BasisPressure         0.2000000000     GPa     # default value
OpticalCalculation              F     # default value
