Siesta Version: siesta-4.0--530
Architecture  : x86_64-unknown-linux-gnu--unknown
Compiler flags: /opt/spack/opt/spack/linux-centos7-x86_64/gcc-8.3.0/openmpi-3.1.3-zvzp4an3k2mmb7andyregxqllnueyg4jo/bin/mpif90 -g -O2
PP flags      : -DMPI -DFC_HAVE_FLUSH -DFC_HAVE_ABORT -DCDF 
PARALLEL version
NetCDF support

* Running on   32 nodes in parallel
>> Start of run:   9-APR-2024  22:55:28

                           ***********************       
                           *  WELCOME TO SIESTA  *       
                           ***********************       

reinit: Reading from standard input
************************** Dump of input data file ****************************
SystemName	geometry-16
SystemLabel	geometry-16
DM.MixingWeight	0.03
DM.NumberPulay	3
DM.Tolerance	1.d-4
DM.UseSaveDM	F
ElectronicTemperature	50 meV
MD.MaxForceTol	0.04 eV/Ang
MD.Steps	0
MD.TypeOfRun	CG
MD.UseSaveXV	F
MaxSCFIterations	500
MinSCFIterations	0
SCF.MustConverge	T
SaveDeltaRho	F
SaveElectrostaticPotential	F
SaveHS	F
SaveRho	F
SaveTotalPotential	F
SolutionMethod	diagon
Spin	non-polarized
Spin.Total	0
UseSaveData	F
WriteCoorStep	F
WriteCoorXmol	F
WriteEigenvalues	T
WriteForces	T
WriteHirshfeldPop	F
WriteKbands	F
WriteKpoints	F
WriteMDXmol	T
WriteMDhistory	F
WriteMullikenPop	0
WriteVoronoiPop	F
WriteWaveFunctions	F
SCFMustConverge	True
Spin     	non-polarized
XC.functional	GGA
XC.authors	PBE
MeshCutoff	9523.985108528535	eV
PAO.EnergyShift	0.1	eV
NumberOfSpecies	5
NumberOfAtoms	67
%block ChemicalSpecieslabel
    1 1 H.1
    2 8 O.2
    3 79 Au.gga.3
    4 79 Au.gga.4
    5 79 Au.gga.5
%endblock ChemicalSpecieslabel
%block PAO.Basis
H.1 2 0.46527
            n=1 0 2 E 99.93138 2.59932
            4.20357 1.84463
            n=2 1 1 E 24.56504 2.20231
            3.52816
O.2 3 -0.24233
            n=2 0 2 E 23.36061 3.39721
            4.50769 2.64066
            n=2 1 2 E 2.78334 5.14253
            6.14996 2.59356
            n=3 2 1 E 63.98188 0.16104
            3.54403
Au.gga.4 2
            n=6 0 2 P 1
            7.24700 5.71500
            n=5 2 2
            5.10700 2.83800
Au.gga.5 2
            n=6 0 2 P 1
            9.07500 5.78700
            n=5 2 2
            6.55700 2.87400
%endblock PAO.Basis
%block PAO.BasisSizes
    Au.gga.3	DZP
%endblock PAO.BasisSizes
LatticeConstant	1.0 Ang
%block LatticeVectors
    11.975725345373620     0.000000000000000     0.000000000000000
    0.000000000000000     10.371282377926580     0.000000000000000
    0.000000000000000     0.000000000000000     57.333623994331909
%endblock LatticeVectors
AtomicCoordinatesFormat  Ang
%block AtomicCoordinatesAndAtomicSpecies
     0.013782436     -0.064890445     24.812960633 5
     2.969764879     -0.075466904     24.840745691 5
     5.935351595     -0.084822554     24.862559790 5
     8.918144164     -0.065493890     24.867106362 5
     1.497201958      2.490837447     24.807780855 5
     4.455721690      2.495367451     24.839432103 5
     7.432591640      2.497988231     24.887458898 5
    10.401779707      2.492062291     24.828599690 5
     0.017492912      5.062506622     24.878003522 5
     2.971634703      5.072715639     24.837359225 5
     5.943569572      5.070424956     24.855037872 5
     8.910416598      5.068777012     24.967016461 5
     1.516746599      7.647742183     24.890141309 5
     4.461525538      7.650014857     24.827092122 5
     7.405464335      7.650695526     24.962818320 5
    10.394987339      7.646895047     24.920449948 5
     1.500011905      0.817599104     27.415819606 5
     4.448431037      0.816768150     27.399550906 5
     7.413016188      0.824273351     27.410368987 5
    10.393214282      0.830281113     27.378142168 5
     0.007456015      3.371623235     27.377678575 5
     2.961637618      3.383936183     27.360887892 5
     5.936350429      3.383669704     27.379399577 5
     8.902185572      3.386819386     27.463188656 5
     1.503075064      5.958569379     27.401643291 5
     4.439395353      5.988325769     27.346696896 5
     7.418500171      5.972340638     27.452520449 5
    10.401286523      5.946168298     27.433725564 5
     0.052541168      8.554254339     27.348621016 5
     2.954634894      8.557784483     27.461336860 5
     5.894884042      8.555284264     27.474043940 5
     8.909740896      8.547917845     27.414600379 5
    -0.005489348      1.711695869     29.868338031 3
     2.947966228      1.718741792     29.903780257 3
     5.943786970      1.707583450     29.860814235 3
     8.920657191      1.683461661     29.917931808 3
     1.468601724      4.279761778     29.862488039 3
     4.448783836      4.304971117     29.780052542 3
     7.404902056      4.260941004     29.929764989 3
    10.373051089      4.249383864     29.927681036 3
    -0.013108801      6.847876690     29.818985657 3
     2.986250287      6.860078993     29.865129784 3
     5.948249575      6.830000485     29.897558993 3
     8.903397245      6.818372653     29.918628120 3
     1.440925826      9.448169732     30.004662703 3
     4.425983854      9.459925464     29.945539122 3
     7.458302623      9.393607295     29.890903842 3
    10.395645706      9.391620741     29.785650589 3
    -0.290199835     -0.052377393     32.299758403 3
     3.236118580      0.055266850     32.525244941 3
     6.039267034      0.019898517     32.419448912 3
     8.749243415      0.086343734     32.831523437 3
     1.463788913      2.876241948     32.352891386 3
     4.480811340      2.713427264     32.344683335 3
     7.386118734      2.635385928     32.554690238 3
    10.302998538      2.640061285     32.700851230 3
    -0.127231585      5.218928791     32.468687128 3
     3.011749030      5.301274419     32.462972993 3
     5.946452938      5.228405827     32.576436540 3
     8.827650251      5.160954945     32.654923133 3
     1.412321127      7.748924805     32.391404590 3
     4.438126772      7.768133613     32.517129915 3
     7.424722106      7.765209089     32.587343992 3
    10.318339001      7.679263806     32.589898410 3
     1.690129353      1.090224998     33.786060539 2
     1.946016179      1.337984910     34.660087948 1
    -1.012867141      1.086604817     33.594489878 1
%endblock AtomicCoordinatesAndAtomicSpecies
%block DM.InitSpin
%endblock DM.InitSpin
DM.UseSaveDM	True
#KPoint grid
%block kgrid_Monkhorst_Pack
     1       0       0  0.0
     0       1       0  0.0
     0       0       1  0.0
%endblock kgrid_Monkhorst_Pack
************************** End of input data file *****************************
*** WARNING:  FDF module: fdf_read: block DM.InitSpin is empty...

reinit: -----------------------------------------------------------------------
reinit: System Name: geometry-16
reinit: -----------------------------------------------------------------------
reinit: System Label: geometry-16                                                 
reinit: -----------------------------------------------------------------------

initatom: Reading input for the pseudopotentials and atomic orbitals ----------
 Species number:            1  Label: H.1 Atomic number:           1
 Species number:            2  Label: O.2 Atomic number:           8
 Species number:            3  Label: Au.gga.3 Atomic number:          79
 Species number:            4  Label: Au.gga.4 Atomic number:          79
 Species number:            5  Label: Au.gga.5 Atomic number:          79
Ground state valence configuration:   1s01
Reading pseudopotential information in formatted form from H.1.psf

Valence configuration for pseudopotential generation:
1s( 1.00) rc: 1.25
2p( 0.00) rc: 1.25
3d( 0.00) rc: 1.25
4f( 0.00) rc: 1.25
Ground state valence configuration:   2s02  2p04
Reading pseudopotential information in formatted form from O.2.psf

Valence configuration for pseudopotential generation:
2s( 2.00) rc: 1.14
2p( 4.00) rc: 1.14
3d( 0.00) rc: 1.14
4f( 0.00) rc: 1.14
Ground state valence configuration:   6s01  5d10
Reading pseudopotential information in formatted form from Au.gga.3.psf

Pseudopotential generated from a relativistic atomic calculation
There are spin-orbit pseudopotentials available
Spin-orbit interaction is not included in this calculation

Valence configuration for pseudopotential generation:
6s( 1.00) rc: 2.32
6p( 0.50) rc: 2.29
5d( 9.50) rc: 2.24
5f( 0.00) rc: 2.00
Ground state valence configuration:   6s01  5d10
Reading pseudopotential information in formatted form from Au.gga.4.psf

Pseudopotential generated from a relativistic atomic calculation
There are spin-orbit pseudopotentials available
Spin-orbit interaction is not included in this calculation

Valence configuration for pseudopotential generation:
6s( 1.00) rc: 2.32
6p( 0.50) rc: 2.29
5d( 9.50) rc: 2.24
5f( 0.00) rc: 2.00
Ground state valence configuration:   6s01  5d10
Reading pseudopotential information in formatted form from Au.gga.5.psf

Pseudopotential generated from a relativistic atomic calculation
There are spin-orbit pseudopotentials available
Spin-orbit interaction is not included in this calculation

Valence configuration for pseudopotential generation:
6s( 1.00) rc: 2.32
6p( 0.50) rc: 2.29
5d( 9.50) rc: 2.24
5f( 0.00) rc: 2.00
resizes: Read basis size for species Au.gga.3 = dzp                 
For H.1, standard SIESTA heuristics set lmxkb to 2
 (one more than the basis l, including polarization orbitals).
Use PS.lmax or PS.KBprojectors blocks to override.
For O.2, standard SIESTA heuristics set lmxkb to 3
 (one more than the basis l, including polarization orbitals).
Use PS.lmax or PS.KBprojectors blocks to override.
For Au.gga.3, standard SIESTA heuristics set lmxkb to 3
 (one more than the basis l, including polarization orbitals).
Use PS.lmax or PS.KBprojectors blocks to override.
For Au.gga.4, standard SIESTA heuristics set lmxkb to 3
 (one more than the basis l, including polarization orbitals).
Use PS.lmax or PS.KBprojectors blocks to override.
 Warning: Empty PAO shell. l =           1
 Will have a KB projector anyway...
For Au.gga.5, standard SIESTA heuristics set lmxkb to 3
 (one more than the basis l, including polarization orbitals).
Use PS.lmax or PS.KBprojectors blocks to override.
 Warning: Empty PAO shell. l =           1
 Will have a KB projector anyway...

<basis_specs>
===============================================================================
H.1                  Z=   1    Mass=  1.0100        Charge= 0.46527    
Lmxo=1 Lmxkb= 2    BasisType=split      Semic=F
L=0  Nsemic=0  Cnfigmx=1
          n=1  nzeta=2  polorb=0
            splnorm:   0.15000    
               vcte:    99.931    
               rinn:    2.5993    
               qcoe:    0.0000    
               qyuk:    0.0000    
               qwid:   0.10000E-01
                rcs:    4.2036      1.8446    
            lambdas:    1.0000      1.0000    
L=1  Nsemic=0  Cnfigmx=2
          n=1  nzeta=1  polorb=0
            splnorm:   0.15000    
               vcte:    24.565    
               rinn:    2.2023    
               qcoe:    0.0000    
               qyuk:    0.0000    
               qwid:   0.10000E-01
                rcs:    3.5282    
            lambdas:    1.0000    
-------------------------------------------------------------------------------
L=0  Nkbl=1  erefs: 0.17977+309
L=1  Nkbl=1  erefs: 0.17977+309
L=2  Nkbl=1  erefs: 0.17977+309
===============================================================================
</basis_specs>

atom: Called for H.1                   (Z =   1)

read_vps: Pseudopotential generation method:
read_vps: ATM3      Troullier-Martins                       
Total valence charge:    1.00000

xc_check: Exchange-correlation functional:
xc_check: GGA Perdew, Burke & Ernzerhof 1996
V l=0 = -2*Zval/r beyond r=  1.2343
V l=1 = -2*Zval/r beyond r=  1.2189
V l=2 = -2*Zval/r beyond r=  1.2189
All V_l potentials equal beyond r=  1.2343
This should be close to max(r_c) in ps generation
All pots = -2*Zval/r beyond r=  1.2343

VLOCAL1: 99.0% of the norm of Vloc inside     28.493 Ry
VLOCAL1: 99.9% of the norm of Vloc inside     64.935 Ry
atom: Maximum radius for 4*pi*r*r*local-pseudopot. charge    1.45251
atom: Maximum radius for r*vlocal+2*Zval:    1.21892
GHOST: No ghost state for L =  0
GHOST: No ghost state for L =  1
GHOST: No ghost state for L =  2

KBgen: Kleinman-Bylander projectors: 
   l= 0   rc=  1.364359   el= -0.477200   Ekb= -2.021939   kbcos= -0.344793
   l= 1   rc=  1.434438   el=  0.001076   Ekb= -0.443447   kbcos= -0.022843
   l= 2   rc=  1.470814   el=  0.002010   Ekb= -0.140543   kbcos= -0.002863

KBgen: Total number of  Kleinman-Bylander projectors:    9
atom: -------------------------------------------------------------------------

atom: SANKEY-TYPE ORBITALS:
atom: Selected multiple-zeta basis: split     

atom: basis set generated (by rescaling the valence charge)
atom: for a cation of charge   0.4653

SPLIT: Orbitals with angular momentum L= 0

SPLIT: Basis orbitals for state 1s

   izeta = 1
                 lambda =    1.000000
                     rc =    4.260636
                 energy =   -0.870244
                kinetic =    1.359204
    potential(screened) =   -2.229448
       potential(ionic) =   -2.289196

   izeta = 2
                 rmatch =    1.865767
              splitnorm =    0.575659
                 energy =    0.485405
                kinetic =    4.355632
    potential(screened) =   -3.870227
       potential(ionic) =   -3.839117

SPLIT: Orbitals with angular momentum L= 1

SPLIT: Basis orbitals for state 2p

   izeta = 1
                 lambda =    1.000000
                     rc =    3.576223
                 energy =    0.828629
                kinetic =    2.006518
    potential(screened) =   -1.177889
       potential(ionic) =   -1.299048
atom: Total number of Sankey-type orbitals:  5

atm_pop: Valence configuration (for local Pseudopot. screening):
 1s( 1.00)                                                            
 2p( 0.00)                                                            
Vna: chval, zval:    1.00000   1.00000

Vna:  Cut-off radius for the neutral-atom potential:   4.260636

atom: _________________________________________________________________________

<basis_specs>
===============================================================================
O.2                  Z=   8    Mass=  16.000        Charge=-0.24233    
Lmxo=2 Lmxkb= 3    BasisType=split      Semic=F
L=0  Nsemic=0  Cnfigmx=2
          n=1  nzeta=2  polorb=0
            splnorm:   0.15000    
               vcte:    23.361    
               rinn:    3.3972    
               qcoe:    0.0000    
               qyuk:    0.0000    
               qwid:   0.10000E-01
                rcs:    4.5077      2.6407    
            lambdas:    1.0000      1.0000    
L=1  Nsemic=0  Cnfigmx=2
          n=1  nzeta=2  polorb=0
            splnorm:   0.15000    
               vcte:    2.7833    
               rinn:    5.1425    
               qcoe:    0.0000    
               qyuk:    0.0000    
               qwid:   0.10000E-01
                rcs:    6.1500      2.5936    
            lambdas:    1.0000      1.0000    
L=2  Nsemic=0  Cnfigmx=3
          n=1  nzeta=1  polorb=0
            splnorm:   0.15000    
               vcte:    63.982    
               rinn:   0.16104    
               qcoe:    0.0000    
               qyuk:    0.0000    
               qwid:   0.10000E-01
                rcs:    3.5440    
            lambdas:    1.0000    
-------------------------------------------------------------------------------
L=0  Nkbl=1  erefs: 0.17977+309
L=1  Nkbl=1  erefs: 0.17977+309
L=2  Nkbl=1  erefs: 0.17977+309
L=3  Nkbl=1  erefs: 0.17977+309
===============================================================================
</basis_specs>

atom: Called for O.2                   (Z =   8)

read_vps: Pseudopotential generation method:
read_vps:  ATM3      Troullier-Martins                      
Total valence charge:    6.00000

read_vps: Pseudopotential includes a core correction:
read_vps: Pseudo-core for xc-correction

xc_check: Exchange-correlation functional:
xc_check: GGA Perdew, Burke & Ernzerhof 1996
V l=0 = -2*Zval/r beyond r=  1.1278
V l=1 = -2*Zval/r beyond r=  1.1278
V l=2 = -2*Zval/r beyond r=  1.1278
V l=3 = -2*Zval/r beyond r=  1.1278
All V_l potentials equal beyond r=  1.1278
This should be close to max(r_c) in ps generation
All pots = -2*Zval/r beyond r=  1.1278

VLOCAL1: 99.0% of the norm of Vloc inside     34.126 Ry
VLOCAL1: 99.9% of the norm of Vloc inside     77.774 Ry
atom: Maximum radius for 4*pi*r*r*local-pseudopot. charge    1.37759
atom: Maximum radius for r*vlocal+2*Zval:    1.18566
GHOST: No ghost state for L =  0
GHOST: No ghost state for L =  1
GHOST: No ghost state for L =  2
GHOST: No ghost state for L =  3

KBgen: Kleinman-Bylander projectors: 
   l= 0   rc=  1.262145   el= -1.757696   Ekb=  9.224596   kbcos=  0.328556
   l= 1   rc=  1.262145   el= -0.664256   Ekb= -7.912306   kbcos= -0.392969
   l= 2   rc=  1.343567   el=  0.002031   Ekb= -1.926788   kbcos= -0.003514
   l= 3   rc=  1.394919   el=  0.003153   Ekb= -0.739398   kbcos= -0.000358

KBgen: Total number of  Kleinman-Bylander projectors:   16
atom: -------------------------------------------------------------------------

atom: SANKEY-TYPE ORBITALS:
atom: Selected multiple-zeta basis: split     

atom: basis set generated (by rescaling the valence charge)
atom: for an anion of charge  -0.2423

SPLIT: Orbitals with angular momentum L= 0

SPLIT: Basis orbitals for state 2s

   izeta = 1
                 lambda =    1.000000
                     rc =    4.574469
                 energy =   -1.754696
                kinetic =    1.490911
    potential(screened) =   -3.245607
       potential(ionic) =  -11.056427

   izeta = 2
                 rmatch =    2.639108
              splitnorm =    0.147030
                 energy =   -1.549984
                kinetic =    2.329575
    potential(screened) =   -3.879559
       potential(ionic) =  -12.330999

SPLIT: Orbitals with angular momentum L= 1

SPLIT: Basis orbitals for state 2p

   izeta = 1
                 lambda =    1.000000
                     rc =    6.174996
                 energy =   -0.657402
                kinetic =    4.283935
    potential(screened) =   -4.941337
       potential(ionic) =  -12.290306

   izeta = 2
                 rmatch =    2.639108
              splitnorm =    0.214868
                 energy =   -0.410830
                kinetic =    7.128181
    potential(screened) =   -7.539011
       potential(ionic) =  -16.115673

SPLIT: Orbitals with angular momentum L= 2

SPLIT: Basis orbitals for state 3d

   izeta = 1
                 lambda =    1.000000
                     rc =    3.562532
                 energy =    3.658839
                kinetic =    6.488139
    potential(screened) =   -2.829300
       potential(ionic) =  -10.001503
atom: Total number of Sankey-type orbitals: 13

atm_pop: Valence configuration (for local Pseudopot. screening):
 2s( 2.00)                                                            
 2p( 4.00)                                                            
 3d( 0.00)                                                            
Vna: chval, zval:    6.00000   6.00000

Vna:  Cut-off radius for the neutral-atom potential:   6.174996
comcore: Pseudo-core radius Rcore=  1.377587

atom: _________________________________________________________________________

<basis_specs>
===============================================================================
Au.gga.3             Z=  79    Mass=  196.97        Charge= 0.17977+309
Lmxo=2 Lmxkb= 3    BasisType=split      Semic=F
L=0  Nsemic=0  Cnfigmx=6
          n=1  nzeta=2  polorb=1
            splnorm:   0.15000    
               vcte:    0.0000    
               rinn:    0.0000    
               qcoe:    0.0000    
               qyuk:    0.0000    
               qwid:   0.10000E-01
                rcs:    0.0000      0.0000    
            lambdas:    1.0000      1.0000    
L=1  Nsemic=0  Cnfigmx=6
L=2  Nsemic=0  Cnfigmx=5
          n=1  nzeta=2  polorb=0
            splnorm:   0.15000    
               vcte:    0.0000    
               rinn:    0.0000    
               qcoe:    0.0000    
               qyuk:    0.0000    
               qwid:   0.10000E-01
                rcs:    0.0000      0.0000    
            lambdas:    1.0000      1.0000    
-------------------------------------------------------------------------------
L=0  Nkbl=1  erefs: 0.17977+309
L=1  Nkbl=1  erefs: 0.17977+309
L=2  Nkbl=1  erefs: 0.17977+309
L=3  Nkbl=1  erefs: 0.17977+309
===============================================================================
</basis_specs>

atom: Called for Au.gga.3              (Z =  79)

read_vps: Pseudopotential generation method:
read_vps: ATM3      Troullier-Martins                       
Total valence charge:   11.00000

read_vps: Pseudopotential includes a core correction:
read_vps: Pseudo-core for xc-correction

xc_check: Exchange-correlation functional:
xc_check: GGA Perdew, Burke & Ernzerhof 1996
V l=0 = -2*Zval/r beyond r=  2.9833
V l=1 = -2*Zval/r beyond r=  2.9833
V l=2 = -2*Zval/r beyond r=  2.9833
V l=3 = -2*Zval/r beyond r=  2.9833
All V_l potentials equal beyond r=  2.2946
This should be close to max(r_c) in ps generation
All pots = -2*Zval/r beyond r=  2.9833
Using large-core scheme for Vlocal

atom: Estimated core radius    2.98333
atom: Maximum radius for 4*pi*r*r*local-pseudopot. charge    3.25614
atom: Maximum radius for r*vlocal+2*Zval:    3.02086
GHOST: No ghost state for L =  0
GHOST: No ghost state for L =  1
GHOST: No ghost state for L =  2
GHOST: No ghost state for L =  3

KBgen: Kleinman-Bylander projectors: 
   l= 0   rc=  2.382235   el= -0.513519   Ekb=  5.087925   kbcos=  0.278237
   l= 1   rc=  2.382235   el= -0.109829   Ekb=  2.881759   kbcos=  0.226107
   l= 2   rc=  2.382235   el= -0.663286   Ekb= -4.434057   kbcos= -0.694733
   l= 3   rc=  2.382235   el=  0.003083   Ekb= -2.571105   kbcos= -0.013009

KBgen: Total number of  Kleinman-Bylander projectors:   16
atom: -------------------------------------------------------------------------

atom: SANKEY-TYPE ORBITALS:
atom: Selected multiple-zeta basis: split     

SPLIT: Orbitals with angular momentum L= 0

SPLIT: Basis orbitals for state 6s

SPLIT: PAO cut-off radius determined from an
SPLIT: energy shift=  0.007350 Ry

   izeta = 1
                 lambda =    1.000000
                     rc =    6.723087
                 energy =   -0.506600
                kinetic =    0.398622
    potential(screened) =   -0.905223
       potential(ionic) =   -8.548368

   izeta = 2
                 rmatch =    5.643738
              splitnorm =    0.150000
                 energy =   -0.431591
                kinetic =    0.653484
    potential(screened) =   -1.085075
       potential(ionic) =   -9.245123

SPLIT: Orbitals with angular momentum L= 2

SPLIT: Basis orbitals for state 5d

SPLIT: PAO cut-off radius determined from an
SPLIT: energy shift=  0.007350 Ry

   izeta = 1
                 lambda =    1.000000
                     rc =    4.737670
                 energy =   -0.656650
                kinetic =    5.068938
    potential(screened) =   -5.725588
       potential(ionic) =  -16.071180

   izeta = 2
                 rmatch =    2.802581
              splitnorm =    0.150000
                 energy =   -0.349126
                kinetic =    7.097014
    potential(screened) =   -7.446140
       potential(ionic) =  -18.531204

POLgen: Perturbative polarization orbital with L=  1

POLgen: Polarization orbital for state 6s

   izeta = 1
                     rc =    6.723087
                 energy =   -0.153149
                kinetic =    0.703267
    potential(screened) =   -0.856416
       potential(ionic) =   -8.074316
atom: Total number of Sankey-type orbitals: 15

atm_pop: Valence configuration (for local Pseudopot. screening):
 6s( 1.00)                                                            
 6p( 0.00)                                                            
 5d(10.00)                                                            
Vna: chval, zval:   11.00000  11.00000

Vna:  Cut-off radius for the neutral-atom potential:   6.723087
comcore: Pseudo-core radius Rcore=  3.977066

atom: _________________________________________________________________________

<basis_specs>
===============================================================================
Au.gga.4             Z=  79    Mass=  196.97        Charge= 0.17977+309
Lmxo=2 Lmxkb= 3    BasisType=split      Semic=F
L=0  Nsemic=0  Cnfigmx=6
          n=1  nzeta=2  polorb=1
            splnorm:   0.15000    
               vcte:    0.0000    
               rinn:    0.0000    
               qcoe:    0.0000    
               qyuk:    0.0000    
               qwid:   0.10000E-01
                rcs:    7.2470      5.7150    
            lambdas:    1.0000      1.0000    
L=1  Nsemic=0  Cnfigmx=6
L=2  Nsemic=0  Cnfigmx=5
          n=1  nzeta=2  polorb=0
            splnorm:   0.15000    
               vcte:    0.0000    
               rinn:    0.0000    
               qcoe:    0.0000    
               qyuk:    0.0000    
               qwid:   0.10000E-01
                rcs:    5.1070      2.8380    
            lambdas:    1.0000      1.0000    
-------------------------------------------------------------------------------
L=0  Nkbl=1  erefs: 0.17977+309
L=1  Nkbl=1  erefs: 0.17977+309
L=2  Nkbl=1  erefs: 0.17977+309
L=3  Nkbl=1  erefs: 0.17977+309
===============================================================================
</basis_specs>

atom: Called for Au.gga.4              (Z =  79)

read_vps: Pseudopotential generation method:
read_vps: ATM3      Troullier-Martins                       
Total valence charge:   11.00000

read_vps: Pseudopotential includes a core correction:
read_vps: Pseudo-core for xc-correction

xc_check: Exchange-correlation functional:
xc_check: GGA Perdew, Burke & Ernzerhof 1996
V l=0 = -2*Zval/r beyond r=  2.9833
V l=1 = -2*Zval/r beyond r=  2.9833
V l=2 = -2*Zval/r beyond r=  2.9833
V l=3 = -2*Zval/r beyond r=  2.9833
All V_l potentials equal beyond r=  2.2946
This should be close to max(r_c) in ps generation
All pots = -2*Zval/r beyond r=  2.9833
Using large-core scheme for Vlocal

atom: Estimated core radius    2.98333
atom: Maximum radius for 4*pi*r*r*local-pseudopot. charge    3.25614
atom: Maximum radius for r*vlocal+2*Zval:    3.02086
GHOST: No ghost state for L =  0
GHOST: No ghost state for L =  1
GHOST: No ghost state for L =  2
GHOST: No ghost state for L =  3

KBgen: Kleinman-Bylander projectors: 
   l= 0   rc=  2.382235   el= -0.513519   Ekb=  5.087925   kbcos=  0.278237
   l= 1   rc=  2.382235   el= -0.109829   Ekb=  2.881759   kbcos=  0.226107
   l= 2   rc=  2.382235   el= -0.663286   Ekb= -4.434057   kbcos= -0.694733
   l= 3   rc=  2.382235   el=  0.003083   Ekb= -2.571105   kbcos= -0.013009

KBgen: Total number of  Kleinman-Bylander projectors:   16
atom: -------------------------------------------------------------------------

atom: SANKEY-TYPE ORBITALS:
atom: Selected multiple-zeta basis: split     

SPLIT: Orbitals with angular momentum L= 0

SPLIT: Basis orbitals for state 6s

   izeta = 1
                 lambda =    1.000000
                     rc =    7.246712
                 energy =   -0.510007
                kinetic =    0.385781
    potential(screened) =   -0.895788
       potential(ionic) =   -8.490322

   izeta = 2
                 rmatch =    5.786611
              splitnorm =    0.137361
                 energy =   -0.445151
                kinetic =    0.623150
    potential(screened) =   -1.068301
       potential(ionic) =   -9.190366

SPLIT: Orbitals with angular momentum L= 2

SPLIT: Basis orbitals for state 5d

   izeta = 1
                 lambda =    1.000000
                     rc =    5.106662
                 energy =   -0.659762
                kinetic =    5.025587
    potential(screened) =   -5.685349
       potential(ionic) =  -16.000690

   izeta = 2
                 rmatch =    2.873530
              splitnorm =    0.141056
                 energy =   -0.387690
                kinetic =    6.936955
    potential(screened) =   -7.324646
       potential(ionic) =  -18.374036

POLgen: Perturbative polarization orbital with L=  1

POLgen: Polarization orbital for state 6s

   izeta = 1
                     rc =    7.246712
                 energy =   -0.163164
                kinetic =    0.676967
    potential(screened) =   -0.840131
       potential(ionic) =   -7.980465
atom: Total number of Sankey-type orbitals: 15

atm_pop: Valence configuration (for local Pseudopot. screening):
 6s( 1.00)                                                            
 6p( 0.00)                                                            
 5d(10.00)                                                            
Vna: chval, zval:   11.00000  11.00000

Vna:  Cut-off radius for the neutral-atom potential:   7.246712
comcore: Pseudo-core radius Rcore=  3.977066

atom: _________________________________________________________________________

<basis_specs>
===============================================================================
Au.gga.5             Z=  79    Mass=  196.97        Charge= 0.17977+309
Lmxo=2 Lmxkb= 3    BasisType=split      Semic=F
L=0  Nsemic=0  Cnfigmx=6
          n=1  nzeta=2  polorb=1
            splnorm:   0.15000    
               vcte:    0.0000    
               rinn:    0.0000    
               qcoe:    0.0000    
               qyuk:    0.0000    
               qwid:   0.10000E-01
                rcs:    9.0750      5.7870    
            lambdas:    1.0000      1.0000    
L=1  Nsemic=0  Cnfigmx=6
L=2  Nsemic=0  Cnfigmx=5
          n=1  nzeta=2  polorb=0
            splnorm:   0.15000    
               vcte:    0.0000    
               rinn:    0.0000    
               qcoe:    0.0000    
               qyuk:    0.0000    
               qwid:   0.10000E-01
                rcs:    6.5570      2.8740    
            lambdas:    1.0000      1.0000    
-------------------------------------------------------------------------------
L=0  Nkbl=1  erefs: 0.17977+309
L=1  Nkbl=1  erefs: 0.17977+309
L=2  Nkbl=1  erefs: 0.17977+309
L=3  Nkbl=1  erefs: 0.17977+309
===============================================================================
</basis_specs>

atom: Called for Au.gga.5              (Z =  79)

read_vps: Pseudopotential generation method:
read_vps: ATM3      Troullier-Martins                       
Total valence charge:   11.00000

read_vps: Pseudopotential includes a core correction:
read_vps: Pseudo-core for xc-correction

xc_check: Exchange-correlation functional:
xc_check: GGA Perdew, Burke & Ernzerhof 1996
V l=0 = -2*Zval/r beyond r=  2.9833
V l=1 = -2*Zval/r beyond r=  2.9833
V l=2 = -2*Zval/r beyond r=  2.9833
V l=3 = -2*Zval/r beyond r=  2.9833
All V_l potentials equal beyond r=  2.2946
This should be close to max(r_c) in ps generation
All pots = -2*Zval/r beyond r=  2.9833
Using large-core scheme for Vlocal

atom: Estimated core radius    2.98333
atom: Maximum radius for 4*pi*r*r*local-pseudopot. charge    3.25614
atom: Maximum radius for r*vlocal+2*Zval:    3.02086
GHOST: No ghost state for L =  0
GHOST: No ghost state for L =  1
GHOST: No ghost state for L =  2
GHOST: No ghost state for L =  3

KBgen: Kleinman-Bylander projectors: 
   l= 0   rc=  2.382235   el= -0.513519   Ekb=  5.087925   kbcos=  0.278237
   l= 1   rc=  2.382235   el= -0.109829   Ekb=  2.881759   kbcos=  0.226107
   l= 2   rc=  2.382235   el= -0.663286   Ekb= -4.434057   kbcos= -0.694733
   l= 3   rc=  2.382235   el=  0.003083   Ekb= -2.571105   kbcos= -0.013009

KBgen: Total number of  Kleinman-Bylander projectors:   16
atom: -------------------------------------------------------------------------

atom: SANKEY-TYPE ORBITALS:
atom: Selected multiple-zeta basis: split     

SPLIT: Orbitals with angular momentum L= 0

SPLIT: Basis orbitals for state 6s

   izeta = 1
                 lambda =    1.000000
                     rc =    9.075230
                 energy =   -0.513232
                kinetic =    0.370471
    potential(screened) =   -0.883703
       potential(ionic) =   -8.414024

   izeta = 2
                 rmatch =    5.786611
              splitnorm =    0.148012
                 energy =   -0.446211
                kinetic =    0.620438
    potential(screened) =   -1.066649
       potential(ionic) =   -9.184844

SPLIT: Orbitals with angular momentum L= 2

SPLIT: Basis orbitals for state 5d

   izeta = 1
                 lambda =    1.000000
                     rc =    6.557093
                 energy =   -0.663050
                kinetic =    4.966809
    potential(screened) =   -5.629858
       potential(ionic) =  -15.898967

   izeta = 2
                 rmatch =    2.873530
              splitnorm =    0.149391
                 energy =   -0.387750
                kinetic =    6.936394
    potential(screened) =   -7.324143
       potential(ionic) =  -18.373423

POLgen: Perturbative polarization orbital with L=  1

POLgen: Polarization orbital for state 6s

   izeta = 1
                     rc =    9.075230
                 energy =   -0.175654
                kinetic =    0.640919
    potential(screened) =   -0.816572
       potential(ionic) =   -7.839035
atom: Total number of Sankey-type orbitals: 15

atm_pop: Valence configuration (for local Pseudopot. screening):
 6s( 1.00)                                                            
 6p( 0.00)                                                            
 5d(10.00)                                                            
Vna: chval, zval:   11.00000  11.00000

Vna:  Cut-off radius for the neutral-atom potential:   9.075230
comcore: Pseudo-core radius Rcore=  3.977066

atom: _________________________________________________________________________

prinput: Basis input ----------------------------------------------------------

PAO.BasisType split     

%block ChemicalSpeciesLabel
    1    1 H.1                     # Species index, atomic number, species label
    2    8 O.2                     # Species index, atomic number, species label
    3   79 Au.gga.3                # Species index, atomic number, species label
    4   79 Au.gga.4                # Species index, atomic number, species label
    5   79 Au.gga.5                # Species index, atomic number, species label
%endblock ChemicalSpeciesLabel

%block PAO.Basis                 # Define Basis set
H.1                   2   0.465            # Label, l-shells, ionic net charge
 n=1   0   2                         # n, l, Nzeta 
   4.261      1.866   
   1.000      1.000   
 n=2   1   1                         # n, l, Nzeta 
   3.576   
   1.000   
O.2                   3  -0.242            # Label, l-shells, ionic net charge
 n=2   0   2                         # n, l, Nzeta 
   4.574      2.639   
   1.000      1.000   
 n=2   1   2                         # n, l, Nzeta 
   6.175      2.639   
   1.000      1.000   
 n=3   2   1                         # n, l, Nzeta 
   3.563   
   1.000   
Au.gga.3              2                    # Species label, number of l-shells
 n=6   0   2 P   1                   # n, l, Nzeta, Polarization, NzetaPol
   6.723      5.644   
   1.000      1.000   
 n=5   2   2                         # n, l, Nzeta 
   4.738      2.803   
   1.000      1.000   
Au.gga.4              2                    # Species label, number of l-shells
 n=6   0   2 P   1                   # n, l, Nzeta, Polarization, NzetaPol
   7.247      5.787   
   1.000      1.000   
 n=5   2   2                         # n, l, Nzeta 
   5.107      2.874   
   1.000      1.000   
Au.gga.5              2                    # Species label, number of l-shells
 n=6   0   2 P   1                   # n, l, Nzeta, Polarization, NzetaPol
   9.075      5.787   
   1.000      1.000   
 n=5   2   2                         # n, l, Nzeta 
   6.557      2.874   
   1.000      1.000   
%endblock PAO.Basis

prinput: ----------------------------------------------------------------------

Dumping basis to NetCDF file H.1.ion.nc
Dumping basis to NetCDF file O.2.ion.nc
Dumping basis to NetCDF file Au.gga.3.ion.nc
Dumping basis to NetCDF file Au.gga.4.ion.nc
Dumping basis to NetCDF file Au.gga.5.ion.nc
coor:   Atomic-coordinates input format  =     Cartesian coordinates
coor:                                          (in Angstroms)

siesta: Atomic coordinates (Bohr) and species
siesta:      0.02605  -0.12263  46.88972  5        1
siesta:      5.61204  -0.14261  46.94222  5        2
siesta:     11.21619  -0.16029  46.98345  5        3
siesta:     16.85286  -0.12377  46.99204  5        4
siesta:      2.82930   4.70700  46.87993  5        5
siesta:      8.42010   4.71556  46.93974  5        6
siesta:     14.04557   4.72052  47.03050  5        7
siesta:     19.65652   4.70932  46.91927  5        8
siesta:      0.03306   9.56675  47.01263  5        9
siesta:      5.61558   9.58605  46.93583  5       10
siesta:     11.23172   9.58172  46.96923  5       11
siesta:     16.83825   9.57860  47.18084  5       12
siesta:      2.86624  14.45214  47.03557  5       13
siesta:      8.43106  14.45644  46.91642  5       14
siesta:     13.99430  14.45772  47.17291  5       15
siesta:     19.64369  14.45054  47.09284  5       16
siesta:      2.83461   1.54504  51.80841  5       17
siesta:      8.40632   1.54347  51.77767  5       18
siesta:     14.00858   1.55765  51.79811  5       19
siesta:     19.64034   1.56900  51.73721  5       20
siesta:      0.01409   6.37145  51.73634  5       21
siesta:      5.59669   6.39472  51.70461  5       22
siesta:     11.21808   6.39421  51.73959  5       23
siesta:     16.82270   6.40016  51.89793  5       24
siesta:      2.84040  11.26007  51.78162  5       25
siesta:      8.38924  11.31630  51.67779  5       26
siesta:     14.01894  11.28609  51.87777  5       27
siesta:     19.65559  11.23663  51.84225  5       28
siesta:      0.09929  16.16520  51.68142  5       29
siesta:      5.58345  16.17188  51.89443  5       30
siesta:     11.13972  16.16715  51.91844  5       31
siesta:     16.83698  16.15323  51.80611  5       32
siesta:     -0.01037   3.23464  56.44300  3       33
siesta:      5.57085   3.24795  56.50998  3       34
siesta:     11.23213   3.22687  56.42878  3       35
siesta:     16.85761   3.18128  56.53672  3       36
siesta:      2.77526   8.08758  56.43195  3       37
siesta:      8.40699   8.13522  56.27617  3       38
siesta:     13.99324   8.05201  56.55908  3       39
siesta:     19.60223   8.03017  56.55514  3       40
siesta:     -0.02477  12.94062  56.34974  3       41
siesta:      5.64320  12.96368  56.43694  3       42
siesta:     11.24057  12.90684  56.49822  3       43
siesta:     16.82499  12.88486  56.53804  3       44
siesta:      2.72296  17.85446  56.70062  3       45
siesta:      8.36390  17.87668  56.58889  3       46
siesta:     14.09415  17.75135  56.48564  3       47
siesta:     19.64493  17.74760  56.28674  3       48
siesta:     -0.54840  -0.09898  61.03772  3       49
siesta:      6.11538   0.10444  61.46383  3       50
siesta:     11.41257   0.03760  61.26390  3       51
siesta:     16.53368   0.16317  62.04261  3       52
siesta:      2.76616   5.43531  61.13813  3       53
siesta:      8.46751   5.12764  61.12262  3       54
siesta:     13.95775   4.98016  61.51947  3       55
siesta:     19.46985   4.98899  61.79568  3       56
siesta:     -0.24043   9.86235  61.35695  3       57
siesta:      5.69138  10.01796  61.34615  3       58
siesta:     11.23717   9.88026  61.56057  3       59
siesta:     16.68185   9.75280  61.70889  3       60
siesta:      2.66890  14.64335  61.21091  3       61
siesta:      8.38685  14.67965  61.44849  3       62
siesta:     14.03070  14.67412  61.58118  3       63
siesta:     19.49884  14.51171  61.58601  3       64
siesta:      3.19388   2.06023  63.84643  2       65
siesta:      3.67744   2.52843  65.49810  1       66
siesta:     -1.91404   2.05339  63.48441  1       67

siesta: System type = slab      

initatomlists: Number of atoms, orbitals, and projectors:     67   983  1058

siesta: ******************** Simulation parameters ****************************
siesta:
siesta: The following are some of the parameters of the simulation.
siesta: A complete list of the parameters used, including default values,
siesta: can be found in file out.fdf
siesta:
redata: Non-Collinear-spin run           =     F
redata: SpinPolarized (Up/Down) run      =     F
redata: Number of spin components        =     1
redata: Long output                      =     F
redata: Number of Atomic Species         =        5
redata: Charge density info will appear in .RHO file
redata: Write Mulliken Pop.              =     NO
redata: Mesh Cutoff                      =   699.9937  Ry
redata: Net charge of the system         =     0.0000 |e|
redata: Min. number of SCF Iter          =        0
redata: Max. number of SCF Iter          =      500
redata: SCF convergence failure will abort job
redata: Mix DM or H after convergence    =     F
redata: Recompute H after scf cycle      =     F
redata: Performing Pulay mixing using    =     3 iterations
redata: Mix DM in first SCF step ?       =     F
redata: Write Pulay info on disk?        =     F
redata: Discard 1st Pulay DM after  kick =     F
redata: New DM Mixing Weight             =     0.0300
redata: New DM Occupancy tolerance       = 0.000000000001
redata: No kicks to SCF
redata: DM Mixing Weight for Kicks       =     0.5000
redata: DM Tolerance for SCF             =     0.000100
redata: Require (free) Energy convergence in SCF =     F
redata: DM (free)Energy tolerance for SCF =     0.000010 eV
redata: Require Harris convergence for SCF =     F
redata: DM Harris energy tolerance for SCF =     0.000010 eV
redata: Using Saved Data (generic)   =     F
redata: Use continuation files for DM    =     F
redata: Neglect nonoverlap interactions  =     F
redata: Method of Calculation            =     Diagonalization
redata: Divide and Conquer               =     T
redata: Electronic Temperature           =     0.0037  Ry
redata: Fix the spin of the system       =     F
redata: Dynamics option                  =     Single-point calculation
redata: ***********************************************************************
Total number of electrons:   712.000000
Total ionic charge:   712.000000

* ProcessorY, Blocksize:    4  24


* Orbital distribution balance (max,min):    48    24

 Kpoints in:            1 . Kpoints trimmed:            1

siesta: k-grid: Number of k-points =     1
siesta: k-grid: Cutoff (effective) =     5.186 Ang
siesta: k-grid: Supercell and displacements
siesta: k-grid:    1   0   0      0.000
siesta: k-grid:    0   1   0      0.000
siesta: k-grid:    0   0   1      0.000

                     ====================================
                        Single-point calculation
                     ====================================

outcell: Unit cell vectors (Ang):
       11.975725    0.000000    0.000000
        0.000000   10.371282    0.000000
        0.000000    0.000000   57.333624

outcell: Cell vector modules (Ang)   :   11.975725   10.371282   57.333624
outcell: Cell angles (23,13,12) (deg):     90.0000     90.0000     90.0000
outcell: Cell volume (Ang**3)        :   7121.0442
 Folding of H and S is implicitly performed
New_DM. Step:     1
Initializing Density Matrix...

initdm: WARNING: DM.InitSpin not used because nspin < 2
New grid distribution:   1
           1       1:   96    1:   23    1:   60
           2       1:   96    1:   23   61:  120
           3       1:   96    1:   23  121:  180
           4       1:   96    1:   23  181:  240
           5       1:   96    1:   23  241:  300
           6       1:   96    1:   23  301:  360
           7       1:   96    1:   23  361:  420
           8       1:   96    1:   23  421:  480
           9       1:   96   24:   46    1:   60
          10       1:   96   24:   46   61:  120
          11       1:   96   24:   46  121:  180
          12       1:   96   24:   46  181:  240
          13       1:   96   24:   46  241:  300
          14       1:   96   24:   46  301:  360
          15       1:   96   24:   46  361:  420
          16       1:   96   24:   46  421:  480
          17       1:   96   47:   68    1:   60
          18       1:   96   47:   68   61:  120
          19       1:   96   47:   68  121:  180
          20       1:   96   47:   68  181:  240
          21       1:   96   47:   68  241:  300
          22       1:   96   47:   68  301:  360
          23       1:   96   47:   68  361:  420
          24       1:   96   47:   68  421:  480
          25       1:   96   69:   90    1:   60
          26       1:   96   69:   90   61:  120
          27       1:   96   69:   90  121:  180
          28       1:   96   69:   90  181:  240
          29       1:   96   69:   90  241:  300
          30       1:   96   69:   90  301:  360
          31       1:   96   69:   90  361:  420
          32       1:   96   69:   90  421:  480

InitMesh: MESH =   192 x   180 x   960 =    33177600
InitMesh: (bp) =    96 x    90 x   480 =     4147200
InitMesh: Mesh cutoff (required, used) =   699.994   710.396 Ry
ExtMesh (bp) on 0 =   252 x   191 x   224 =    10781568
New grid distribution:   2
           1      48:   96    1:   44    1:  206
           2      49:   96   46:   90  229:  236
           3       1:   48   46:   90  215:  221
           4      49:   96    1:   45  237:  245
           5      48:   96    1:   45  246:  257
           6       1:   48    1:   44  258:  480
           7       1:   48    1:   45  207:  214
           8      49:   96    1:   45  215:  221
           9       1:   47    1:   45    1:  206
          10       1:   48   46:   90  207:  214
          11       1:   48    1:   45  215:  221
          12       1:   48    1:   45  237:  245
          13       1:   47    1:   45  246:  257
          14      49:   96    1:   44  258:  480
          15      49:   96   46:   90  207:  214
          16      49:   96    1:   45  222:  228
          17      48:   96   45:   90    1:  206
          18       1:   48    1:   45  229:  236
          19       1:   48   46:   90  222:  228
          20      49:   96   46:   90  237:  245
          21      48:   96   46:   90  246:  257
          22       1:   48   45:   90  258:  480
          23      49:   96    1:   45  207:  214
          24      49:   96   46:   90  222:  228
          25       1:   47   46:   90    1:  206
          26       1:   48   46:   90  229:  236
          27      49:   96   46:   90  215:  221
          28       1:   48   46:   90  237:  245
          29       1:   47   46:   90  246:  257
          30      49:   96   45:   90  258:  480
          31      49:   96    1:   45  229:  236
          32       1:   48    1:   45  222:  228
New grid distribution:   3
           1      48:   96    1:   45    1:  185
           2      49:   96    1:   45  270:  286
           3      49:   96   46:   90  186:  202
           4       1:   48    1:   45  237:  253
           5      49:   96    1:   45  237:  253
           6      49:   96    1:   44  287:  480
           7       1:   48    1:   45  220:  236
           8      49:   96    1:   45  220:  236
           9       1:   47    1:   45    1:  185
          10      49:   96   46:   90  270:  286
          11       1:   48   46:   90  220:  236
          12      49:   96    1:   45  203:  219
          13       1:   48    1:   45  270:  286
          14       1:   48    1:   42  287:  480
          15      49:   96    1:   45  186:  202
          16      49:   96   46:   90  220:  236
          17      48:   96   46:   90    1:  185
          18       1:   48    1:   45  186:  202
          19       1:   48    1:   45  254:  269
          20       1:   48   46:   90  203:  219
          21      49:   96   46:   90  237:  253
          22       1:   48   43:   90  287:  480
          23       1:   48   46:   90  186:  202
          24      49:   96    1:   45  254:  269
          25       1:   47   46:   90    1:  185
          26       1:   48   46:   90  270:  286
          27      49:   96   46:   90  254:  269
          28      49:   96   46:   90  203:  219
          29       1:   48   46:   90  237:  253
          30      49:   96   45:   90  287:  480
          31       1:   48    1:   45  203:  219
          32       1:   48   46:   90  254:  269
Setting up quadratic distribution...
ExtMesh (bp) on 0 =   205 x   212 x   370 =    16080200
PhiOnMesh: Number of (b)points on node 0 =               444136
PhiOnMesh: nlist on node 0 =              3686089

stepf: Fermi-Dirac step function

siesta: Program's energy decomposition (eV):
siesta: Ebs     =     -3472.467872
siesta: Eions   =     74448.861464
siesta: Ena     =      3160.748144
siesta: Ekin    =     44340.467594
siesta: Enl     =    -18459.697510
siesta: DEna    =         0.000048
siesta: DUscf   =         0.000000
siesta: DUext   =         0.000000
siesta: Exc     =    -46061.588127
siesta: eta*DQ  =         0.000000
siesta: Emadel  =         0.000000
siesta: Emeta   =         0.000000
siesta: Emolmec =         0.000000
siesta: Ekinion =         0.000000
siesta: Eharris =    -91689.467469
siesta: Etot    =    -91468.931316
siesta: FreeEng =    -91469.443784

   scf: iscf   Eharris(eV)      E_KS(eV)   FreeEng(eV)    dDmax  Ef(eV)
   scf:    1   -91689.4675   -91468.9313   -91469.4438  1.63016 -1.3674
timer: Routine,Calls,Time,% =    IterSCF     1       8.586  30.92
   scf:    2  -104741.3612   -90992.4095   -90992.5646224.25048-11.9865
   scf:    3   -91668.7228   -91474.9721   -91475.1950  1.38329 -1.9221
   scf:    4   -91648.8308   -91483.7068   -91484.0127  1.25186 -2.2780
   scf:    5   -91602.8427   -91509.3535   -91509.5851  0.78503 -3.4736
   scf:    6   -91582.3637   -91525.6714   -91525.8621  0.51852 -4.2294
   scf:    7   -91578.9374   -91532.9300   -91533.0730  0.56911 -4.3983
   scf:    8   -91577.4256   -91537.9419   -91538.0403  0.51274 -4.2277
   scf:    9   -91577.3583   -91543.9137   -91544.0057  0.36125 -3.9711
   scf:   10   -91577.9848   -91550.5306   -91550.6244  0.26928 -3.7835
   scf:   11   -91578.8359   -91561.7676   -91561.8628  0.23715 -3.6759
   scf:   12   -91578.3717   -91563.6214   -91563.7168  0.21119 -3.7374
   scf:   13   -91577.3826   -91565.8290   -91565.9325  0.11565 -3.8945
   scf:   14   -91576.8881   -91565.8209   -91565.9270  0.12305 -4.0079
   scf:   15   -91576.8240   -91565.9593   -91566.0633  0.11945 -4.0075
   scf:   16   -91576.7416   -91566.9271   -91567.0251  0.12158 -3.9399
   scf:   17   -91576.7443   -91567.4623   -91567.5601  0.11550 -3.9417
   scf:   18   -91576.8342   -91571.3452   -91571.4455  0.08192 -4.0191
   scf:   19   -91576.8261   -91572.2940   -91572.3956  0.07276 -4.0372
   scf:   20   -91576.7571   -91574.1339   -91574.2373  0.03778 -4.0487
   scf:   21   -91576.7320   -91574.3974   -91574.4995  0.02647 -4.0291
   scf:   22   -91576.7058   -91574.3998   -91574.5000  0.02438 -3.9931
   scf:   23   -91576.6999   -91574.3918   -91574.4918  0.02200 -3.9892
   scf:   24   -91576.6943   -91574.4441   -91574.5443  0.02159 -3.9939
   scf:   25   -91576.6939   -91574.5683   -91574.6689  0.02066 -4.0029
   scf:   26   -91576.6954   -91574.8594   -91574.9605  0.02082 -4.0148
   scf:   27   -91576.6988   -91575.3809   -91575.4819  0.01545 -4.0193
   scf:   28   -91576.6997   -91575.7326   -91575.8333  0.01365 -4.0123
   scf:   29   -91576.6976   -91575.9276   -91576.0277  0.01011 -3.9975
   scf:   30   -91576.6960   -91575.9670   -91576.0672  0.00819 -3.9941
   scf:   31   -91576.6934   -91575.9721   -91576.0726  0.00729 -3.9968
   scf:   32   -91576.6930   -91575.9893   -91576.0899  0.00711 -3.9995
   scf:   33   -91576.6926   -91576.0668   -91576.1677  0.00639 -4.0066
   scf:   34   -91576.6927   -91576.1201   -91576.2209  0.00604 -4.0077
   scf:   35   -91576.6934   -91576.2838   -91576.3844  0.00549 -4.0058
   scf:   36   -91576.6935   -91576.3528   -91576.4533  0.00449 -4.0032
   scf:   37   -91576.6933   -91576.4206   -91576.5211  0.00300 -4.0006
   scf:   38   -91576.6929   -91576.4454   -91576.5460  0.00272 -4.0012
   scf:   39   -91576.6927   -91576.4579   -91576.5586  0.00257 -4.0030
   scf:   40   -91576.6926   -91576.4647   -91576.5654  0.00247 -4.0049
   scf:   41   -91576.6926   -91576.4719   -91576.5727  0.00237 -4.0054
   scf:   42   -91576.6927   -91576.4964   -91576.5971  0.00210 -4.0049
   scf:   43   -91576.6927   -91576.5142   -91576.6149  0.00194 -4.0044
   scf:   44   -91576.6927   -91576.5650   -91576.6657  0.00142 -4.0034
   scf:   45   -91576.6927   -91576.5925   -91576.6932  0.00115 -4.0036
   scf:   46   -91576.6926   -91576.6213   -91576.7221  0.00090 -4.0048
   scf:   47   -91576.6926   -91576.6277   -91576.7285  0.00098 -4.0053
   scf:   48   -91576.6926   -91576.6301   -91576.7309  0.00086 -4.0056
   scf:   49   -91576.6926   -91576.6305   -91576.7312  0.00072 -4.0054
   scf:   50   -91576.6926   -91576.6318   -91576.7326  0.00067 -4.0051
   scf:   51   -91576.6926   -91576.6351   -91576.7358  0.00064 -4.0049
   scf:   52   -91576.6926   -91576.6425   -91576.7433  0.00057 -4.0049
   scf:   53   -91576.6926   -91576.6535   -91576.7543  0.00048 -4.0052
   scf:   54   -91576.6926   -91576.6624   -91576.7632  0.00052 -4.0054
   scf:   55   -91576.6926   -91576.6703   -91576.7711  0.00043 -4.0055
   scf:   56   -91576.6926   -91576.6727   -91576.7735  0.00039 -4.0054
   scf:   57   -91576.6926   -91576.6734   -91576.7741  0.00025 -4.0051
   scf:   58   -91576.6926   -91576.6737   -91576.7744  0.00024 -4.0051
   scf:   59   -91576.6926   -91576.6748   -91576.7756  0.00020 -4.0051
   scf:   60   -91576.6926   -91576.6757   -91576.7764  0.00019 -4.0051
   scf:   61   -91576.6926   -91576.6791   -91576.7798  0.00018 -4.0052
   scf:   62   -91576.6926   -91576.6816   -91576.7824  0.00018 -4.0052
   scf:   63   -91576.6926   -91576.6846   -91576.7854  0.00017 -4.0052
   scf:   64   -91576.6926   -91576.6857   -91576.7864  0.00013 -4.0051
   scf:   65   -91576.6926   -91576.6861   -91576.7869  0.00009 -4.0050

SCF Convergence by dMax criterion
max |DM_out - DM_in|:     0.00008578
SCF cycle converged after   65 iterations

Using DM_out to compute the final energy and forces

siesta: E_KS(eV) =           -91576.6926

siesta: E_KS - E_eggbox =    -91576.6926

siesta: Atomic forces (eV/Ang):
     1   -0.125512   -0.109536    0.001443
     2   -0.012561   -0.175543   -0.075378
     3   -0.020678   -0.177711   -0.074133
     4    0.126939   -0.167598   -0.053355
     5   -0.135833    0.003599   -0.123141
     6    0.026531    0.014509   -0.146521
     7    0.002940    0.027189   -0.150039
     8    0.145051    0.000845   -0.063819
     9   -0.138108   -0.018401   -0.044986
    10    0.009784   -0.013141   -0.137447
    11   -0.012509   -0.015687   -0.168761
    12    0.109855   -0.013657   -0.120680
    13   -0.097589    0.168405   -0.089186
    14    0.029356    0.162171   -0.100265
    15   -0.002280    0.160039   -0.131121
    16    0.098445    0.128784   -0.003764
    17   -0.125977   -0.203796    0.203135
    18    0.022585   -0.182966    0.229483
    19    0.011057   -0.176482    0.232908
    20    0.152693   -0.127032    0.267702
    21   -0.182989    0.007206    0.186504
    22   -0.014055    0.025126    0.177122
    23   -0.028610    0.020247    0.180516
    24    0.155771    0.005567    0.160647
    25   -0.137781   -0.027997    0.199200
    26    0.013324   -0.004330    0.181718
    27    0.004458   -0.012925    0.203323
    28    0.176365   -0.007223    0.228776
    29   -0.148906    0.166458    0.150077
    30   -0.005771    0.215438    0.157664
    31   -0.036077    0.194449    0.140905
    32    0.132126    0.178686    0.150351
    33   -0.162525   -0.144478    0.139216
    34   -0.001139   -0.143807    0.190197
    35   -0.023211   -0.137397    0.201244
    36    0.127852   -0.143567    0.189856
    37   -0.140296   -0.009209    0.307731
    38    0.041645    0.028629    0.229262
    39    0.001530    0.032137    0.193774
    40    0.141906   -0.010596    0.220982
    41   -0.199432    0.016089    0.158289
    42   -0.032506    0.013695    0.234055
    43   -0.008523   -0.008556    0.200408
    44    0.131335    0.024773    0.180801
    45   -0.237211    0.179301    0.221136
    46   -0.005015    0.202988    0.255275
    47    0.038605    0.182332    0.195053
    48    0.233742    0.137550    0.211773
    49   -0.410945   -0.062366   -0.052521
    50    0.447920   -0.367873   -0.512712
    51   -0.036193   -0.201623   -0.246300
    52    0.256276   -0.076317   -0.434302
    53   -0.157102    0.164794   -0.380340
    54    0.031842    0.005254   -0.203953
    55    0.037460    0.007810   -0.243518
    56    0.189661   -0.235766   -0.186868
    57   -0.187214    0.035987   -0.309341
    58    0.011107   -0.009730   -0.255044
    59   -0.013270   -0.024654   -0.255930
    60    0.156736    0.014844   -0.315101
    61   -0.132557    0.070635   -0.274028
    62    0.008573    0.158398   -0.279908
    63    0.040988    0.176346   -0.263894
    64    0.162691    0.118914   -0.354903
    65   -0.570033   -0.375296   -1.228420
    66    0.501648    0.366183    1.487995
    67   -0.245294   -0.027925   -0.598311
----------------------------------------
   Tot   -0.008903    0.002195   -0.009472
----------------------------------------
   Max    1.487995
   Res    0.224783    sqrt( Sum f_i^2 / 3N )
----------------------------------------
   Max    1.487995    constrained

Stress-tensor-Voigt (kbar):       11.56       15.39        2.71        0.01        0.11       -0.14
(Free)E + p*V (eV/cell)   -91620.7496
Target enthalpy (eV/cell)   -91576.7933

siesta: Eigenvalues (eV):
  ik is    eps
   1  1 -23.62 -12.71 -11.84 -11.51 -11.46 -11.43 -11.17 -11.12 -11.00 -10.72
        -10.62 -10.46 -10.42 -10.41 -10.39 -10.36 -10.36 -10.33 -10.32 -10.29
        -10.26 -10.24 -10.23 -10.21 -10.13  -9.91  -9.90  -9.88  -9.85  -9.83
         -9.80  -9.77  -9.76  -9.76  -9.74  -9.74  -9.73  -9.73  -9.70  -9.69
         -9.67  -9.65  -9.64  -9.63  -9.61  -9.59  -9.59  -9.57  -9.55  -9.54
         -9.52  -9.52  -9.50  -9.49  -9.48  -9.45  -9.42  -9.38  -9.37  -9.33
         -9.30  -9.29  -9.26  -9.26  -9.22  -9.20  -9.17  -9.16  -9.14  -9.12
         -9.12  -9.06  -9.03  -9.01  -9.01  -8.98  -8.97  -8.96  -8.95  -8.94
         -8.93  -8.92  -8.90  -8.88  -8.87  -8.83  -8.83  -8.82  -8.81  -8.79
         -8.78  -8.77  -8.75  -8.73  -8.72  -8.72  -8.71  -8.69  -8.68  -8.67
         -8.66  -8.65  -8.64  -8.63  -8.62  -8.61  -8.59  -8.59  -8.59  -8.57
         -8.56  -8.55  -8.54  -8.53  -8.52  -8.51  -8.49  -8.48  -8.47  -8.44
         -8.43  -8.43  -8.43  -8.42  -8.41  -8.39  -8.38  -8.36  -8.35  -8.35
         -8.34  -8.32  -8.31  -8.30  -8.30  -8.28  -8.24  -8.23  -8.22  -8.21
         -8.18  -8.17  -8.17  -8.15  -8.15  -8.14  -8.13  -8.13  -8.12  -8.10
         -8.10  -8.09  -8.07  -8.06  -8.05  -8.03  -8.03  -8.01  -8.00  -7.99
         -7.99  -7.97  -7.96  -7.95  -7.93  -7.93  -7.91  -7.90  -7.89  -7.88
         -7.88  -7.87  -7.87  -7.86  -7.84  -7.83  -7.82  -7.80  -7.80  -7.79
         -7.78  -7.78  -7.76  -7.73  -7.73  -7.71  -7.68  -7.67  -7.66  -7.65
         -7.63  -7.62  -7.60  -7.58  -7.57  -7.55  -7.55  -7.53  -7.52  -7.50
         -7.49  -7.49  -7.48  -7.47  -7.45  -7.44  -7.43  -7.43  -7.41  -7.41
         -7.39  -7.38  -7.37  -7.36  -7.35  -7.35  -7.34  -7.31  -7.30  -7.30
         -7.29  -7.28  -7.27  -7.26  -7.26  -7.25  -7.23  -7.23  -7.22  -7.19
         -7.18  -7.17  -7.16  -7.15  -7.13  -7.13  -7.11  -7.10  -7.09  -7.08
         -7.07  -7.07  -7.05  -7.04  -7.04  -7.01  -7.00  -6.98  -6.97  -6.95
         -6.94  -6.92  -6.91  -6.89  -6.88  -6.88  -6.87  -6.86  -6.85  -6.83
         -6.82  -6.80  -6.79  -6.78  -6.77  -6.76  -6.75  -6.73  -6.69  -6.69
         -6.67  -6.66  -6.65  -6.63  -6.61  -6.59  -6.57  -6.56  -6.55  -6.54
         -6.52  -6.52  -6.51  -6.50  -6.49  -6.48  -6.47  -6.46  -6.44  -6.43
         -6.43  -6.42  -6.42  -6.40  -6.40  -6.39  -6.39  -6.39  -6.38  -6.37
         -6.36  -6.35  -6.34  -6.33  -6.32  -6.31  -6.30  -6.28  -6.28  -6.27
         -6.27  -6.26  -6.26  -6.23  -6.22  -6.21  -6.21  -6.20  -6.20  -6.18
         -6.18  -6.12  -6.11  -6.11  -6.10  -6.09  -6.07  -6.07  -6.05  -6.04
         -6.02  -5.98  -5.92  -5.90  -5.87  -5.86  -5.86  -5.85  -5.83  -5.80
         -5.80  -5.74  -5.71  -5.66  -5.64  -5.47  -5.42  -5.23  -4.86  -4.82
         -4.72  -4.64  -4.44  -4.43  -4.28  -4.10  -3.90  -3.82  -3.78  -3.74
         -3.72  -3.70  -3.62  -3.50  -3.23  -3.21  -3.16  -3.05  -2.97  -2.92
         -2.89  -2.80  -2.73  -2.72  -2.61  -2.59  -2.45  -2.34  -2.19  -2.11
         -2.06  -2.06  -2.02  -1.51  -1.32  -1.26  -1.19  -1.12  -1.07  -1.06
         -0.96  -0.94  -0.88  -0.84  -0.70  -0.65  -0.58  -0.36  -0.28  -0.15
          0.05   0.23   0.44   0.52   0.59   0.90   0.95   0.98   1.07   1.11
          1.15   1.29   1.34   1.41   1.49   1.52   1.64   1.69   1.80   1.86
          1.94   2.01   2.05   2.20   2.28   2.39   2.71   2.83   2.88   2.95
          3.00   3.08   3.15   3.21   3.49   3.54   3.58   3.70   3.84   3.89
          3.92   3.95   3.98   4.06   4.38   4.70   4.72   4.79   4.82   4.87
          4.93   4.95   5.04   5.07   5.12   5.31   5.35   5.48   5.59   5.73
          5.77   5.80   5.99   6.00   6.10   6.14   6.20   6.22   6.29   6.34
          6.35   6.40   6.52   6.55   6.63   6.67   6.69   6.83   6.89   6.95
          6.99   7.19   7.30   7.43   7.62   7.63   7.67   7.67   7.75   7.81
          7.86   7.87   7.91   7.93   8.06   8.15   8.24   8.47   8.56   8.66
          8.72   8.74   8.87   8.88   8.97   8.99   9.00   9.05   9.19   9.34
          9.39   9.44   9.59   9.68   9.74   9.82   9.91  10.01  10.08  10.42
         10.51  10.58  10.63  10.66  10.70  10.71  10.74  10.80  10.84  10.87
         10.92  10.96  10.98  11.06  11.10  11.21  11.36  11.46  11.61  11.70
         11.73  11.79  11.83  11.90  11.94  11.96  12.02  12.10  12.16  12.31
         12.50  12.54  12.57  12.60  12.68  12.72  12.79  12.89  12.99  13.05
         13.14  13.18  13.22  13.39  13.44  13.57  13.71  13.79  13.87  13.89
         14.17  14.56  14.73  14.77  14.79  14.84  14.87  15.01  15.02  15.04
         15.13  15.21  15.23  15.29  15.37  15.42  15.59  15.61  15.70  15.75
         16.02  16.19  16.35  16.49  16.52  16.55  16.58  16.62  16.76  16.80
         16.90  17.03  17.08  17.18  17.27  17.33  17.43  17.57  17.76  17.86
         18.00  18.13  18.14  18.41  18.44  18.47  18.51  18.66  18.87  19.00
         19.06  19.13  19.20  19.24  19.31  19.34  19.54  19.66  19.71  19.93
         19.98  20.12  20.17  20.19  20.23  20.31  20.45  20.57  20.67  20.83
         20.87  21.04  21.23  21.37  21.44  21.56  21.63  21.74  21.80  21.90
         21.99  22.10  22.15  22.18  22.20  22.24  22.34  22.37  22.47  22.57
         22.68  22.73  22.75  22.93  23.04  23.21  23.25  23.37  23.58  23.70
         23.74  23.81  23.86  23.95  23.97  24.01  24.10  24.17  24.19  24.24
         24.25  24.32  24.41  24.52  24.69  24.81  24.84  24.88  24.96  25.00
         25.05  25.16  25.22  25.31  25.37  25.46  25.46  25.52  25.68  25.73
         25.84  25.92  25.97  26.05  26.10  26.17  26.18  26.23  26.29  26.33
         26.39  26.44  26.55  26.56  26.63  26.66  26.72  26.81  26.91  26.94
         26.99  27.06  27.13  27.15  27.20  27.25  27.31  27.46  27.51  27.52
         27.56  27.59  27.73  27.81  27.86  27.90  28.02  28.08  28.17  28.23
         28.28  28.39  28.47  28.50  28.61  28.62  28.72  28.83  28.86  28.92
         29.05  29.09  29.16  29.23  29.27  29.29  29.37  29.40  29.45  29.53
         29.59  29.70  29.71  29.87  29.89  29.96  29.99  30.15  30.16  30.26
         30.32  30.40  30.47  30.51  30.58  30.70  30.75  30.85  30.88  30.94
         31.01  31.07  31.16  31.18  31.21  31.31  31.35  31.38  31.48  31.59
         31.68  31.78  31.85  31.86  31.98  32.04  32.12  32.20  32.25  32.33
         32.40  32.44  32.46  32.51  32.52  32.59  32.64  32.74  32.76  32.83
         32.91  32.92  32.99  33.05  33.11  33.21  33.25  33.28  33.37  33.42
         33.45  33.51  33.56  33.58  33.62  33.70  33.74  33.81  33.87  33.97
         34.05  34.11  34.28  34.33  34.36  34.51  34.58  34.63  34.76  34.81
         34.91  34.93  34.98  35.14  35.19  35.28  35.49  35.54  35.57  35.59
         35.62  35.76  35.83  35.85  35.98  36.11  36.15  36.24  36.30  36.36
         36.57  36.62  36.78  36.83  36.92  36.97  36.98  37.07  37.19  37.29
         37.35  37.45  37.49  37.56  37.68  37.79  37.91  38.05  38.19  38.20
         38.33  38.40  38.49  38.52  38.60  38.68  38.75  38.84  39.04  39.20
         39.32  39.48  39.66  39.76  40.03  40.09  40.25  40.34  40.40  40.46
         40.50  40.58  40.64  40.73  40.75  40.78  40.87  41.00  41.02  41.18
         41.38  41.39  41.47  41.62  41.82  41.88  42.04  42.11  42.18  42.29
         42.39  42.47  42.57  42.74  42.82  42.97  43.02  43.09  43.13  43.25
         43.39  43.51  43.67  43.77  43.87  43.97  44.03  44.08  44.13  44.20
         44.37  44.46  44.55  44.76  44.98  45.07  45.28  45.56  45.77  45.87
         46.03  46.15  46.22  46.34  46.44  46.50  46.55  46.63  46.78  47.11
         47.56  47.67  47.78  47.99  48.13  48.32  48.43  48.58  48.65  48.80
         49.05  49.65  49.72  50.30  50.43  50.62  55.10  56.07  60.02  61.39
         61.88  62.20  71.30
siesta: Fermi energy =      -4.005045 eV

siesta: Program's energy decomposition (eV):
siesta: Ebs     =     -5612.780907
siesta: Eions   =     74448.861464
siesta: Ena     =      3160.748144
siesta: Ekin    =     41785.922846
siesta: Enl     =    -17193.521752
siesta: DEna    =       611.192550
siesta: DUscf   =        55.684503
siesta: DUext   =         0.000000
siesta: Exc     =    -45547.857419
siesta: eta*DQ  =         0.000000
siesta: Emadel  =         0.000000
siesta: Emeta   =         0.000000
siesta: Emolmec =         0.000000
siesta: Ekinion =         0.000000
siesta: Eharris =    -91576.692593
siesta: Etot    =    -91576.692592
siesta: FreeEng =    -91576.793344

siesta: Final energy (eV):
siesta:  Band Struct. =   -5612.780907
siesta:       Kinetic =   41785.922846
siesta:       Hartree = 1201221.478756
siesta:    Ext. field =       0.000000
siesta:   Exch.-corr. =  -45547.857419
siesta:  Ion-electron =-2434837.841315
siesta:       Ion-ion = 1145801.604540
siesta:       Ekinion =       0.000000
siesta:         Total =  -91576.692592

siesta: Atomic forces (eV/Ang):
siesta:      1   -0.125512   -0.109536    0.001443
siesta:      2   -0.012561   -0.175543   -0.075378
siesta:      3   -0.020678   -0.177711   -0.074133
siesta:      4    0.126939   -0.167598   -0.053355
siesta:      5   -0.135833    0.003599   -0.123141
siesta:      6    0.026531    0.014509   -0.146521
siesta:      7    0.002940    0.027189   -0.150039
siesta:      8    0.145051    0.000845   -0.063819
siesta:      9   -0.138108   -0.018401   -0.044986
siesta:     10    0.009784   -0.013141   -0.137447
siesta:     11   -0.012509   -0.015687   -0.168761
siesta:     12    0.109855   -0.013657   -0.120680
siesta:     13   -0.097589    0.168405   -0.089186
siesta:     14    0.029356    0.162171   -0.100265
siesta:     15   -0.002280    0.160039   -0.131121
siesta:     16    0.098445    0.128784   -0.003764
siesta:     17   -0.125977   -0.203796    0.203135
siesta:     18    0.022585   -0.182966    0.229483
siesta:     19    0.011057   -0.176482    0.232908
siesta:     20    0.152693   -0.127032    0.267702
siesta:     21   -0.182989    0.007206    0.186504
siesta:     22   -0.014055    0.025126    0.177122
siesta:     23   -0.028610    0.020247    0.180516
siesta:     24    0.155771    0.005567    0.160647
siesta:     25   -0.137781   -0.027997    0.199200
siesta:     26    0.013324   -0.004330    0.181718
siesta:     27    0.004458   -0.012925    0.203323
siesta:     28    0.176365   -0.007223    0.228776
siesta:     29   -0.148906    0.166458    0.150077
siesta:     30   -0.005771    0.215438    0.157664
siesta:     31   -0.036077    0.194449    0.140905
siesta:     32    0.132126    0.178686    0.150351
siesta:     33   -0.162525   -0.144478    0.139216
siesta:     34   -0.001139   -0.143807    0.190197
siesta:     35   -0.023211   -0.137397    0.201244
siesta:     36    0.127852   -0.143567    0.189856
siesta:     37   -0.140296   -0.009209    0.307731
siesta:     38    0.041645    0.028629    0.229262
siesta:     39    0.001530    0.032137    0.193774
siesta:     40    0.141906   -0.010596    0.220982
siesta:     41   -0.199432    0.016089    0.158289
siesta:     42   -0.032506    0.013695    0.234055
siesta:     43   -0.008523   -0.008556    0.200408
siesta:     44    0.131335    0.024773    0.180801
siesta:     45   -0.237211    0.179301    0.221136
siesta:     46   -0.005015    0.202988    0.255275
siesta:     47    0.038605    0.182332    0.195053
siesta:     48    0.233742    0.137550    0.211773
siesta:     49   -0.410945   -0.062366   -0.052521
siesta:     50    0.447920   -0.367873   -0.512712
siesta:     51   -0.036193   -0.201623   -0.246300
siesta:     52    0.256276   -0.076317   -0.434302
siesta:     53   -0.157102    0.164794   -0.380340
siesta:     54    0.031842    0.005254   -0.203953
siesta:     55    0.037460    0.007810   -0.243518
siesta:     56    0.189661   -0.235766   -0.186868
siesta:     57   -0.187214    0.035987   -0.309341
siesta:     58    0.011107   -0.009730   -0.255044
siesta:     59   -0.013270   -0.024654   -0.255930
siesta:     60    0.156736    0.014844   -0.315101
siesta:     61   -0.132557    0.070635   -0.274028
siesta:     62    0.008573    0.158398   -0.279908
siesta:     63    0.040988    0.176346   -0.263894
siesta:     64    0.162691    0.118914   -0.354903
siesta:     65   -0.570033   -0.375296   -1.228420
siesta:     66    0.501648    0.366183    1.487995
siesta:     67   -0.245294   -0.027925   -0.598311
siesta: ----------------------------------------
siesta:    Tot   -0.008903    0.002195   -0.009472

siesta: Stress tensor (static) (eV/Ang**3):
siesta:     0.007217    0.000006   -0.000089
siesta:     0.000006    0.009608    0.000066
siesta:    -0.000089    0.000066    0.001693

siesta: Cell volume =       7121.044177 Ang**3

siesta: Pressure (static):
siesta:                Solid            Molecule  Units
siesta:          -0.00006723         -0.00008416  Ry/Bohr**3
siesta:          -0.00617273         -0.00772763  eV/Ang**3
siesta:          -9.88990298        -12.38115438  kBar
(Free)E+ p_basis*V_orbitals  =      -91504.116148
(Free)Eharris+ p_basis*V_orbitals  =      -91504.116149

siesta: Electric dipole (a.u.)  =    0.000000   -0.000000    1.510074
siesta: Electric dipole (Debye) =    0.000000   -0.000000    3.838227
>> End of run:   9-APR-2024  23:04:41
Job completed
