Siesta Version: siesta-4.0--530
Architecture  : x86_64-unknown-linux-gnu--unknown
Compiler flags: /opt/spack/opt/spack/linux-centos7-x86_64/gcc-8.3.0/openmpi-3.1.3-zvzp4an3k2mmb7andyregxqllnueyg4jo/bin/mpif90 -g -O2
PP flags      : -DMPI -DFC_HAVE_FLUSH -DFC_HAVE_ABORT -DCDF 
PARALLEL version
NetCDF support

* Running on   32 nodes in parallel
>> Start of run:  10-APR-2024   3:19:37

                           ***********************       
                           *  WELCOME TO SIESTA  *       
                           ***********************       

reinit: Reading from standard input
************************** Dump of input data file ****************************
SystemName	geometry-2
SystemLabel	geometry-2
DM.MixingWeight	0.03
DM.NumberPulay	3
DM.Tolerance	1.d-4
DM.UseSaveDM	F
ElectronicTemperature	50 meV
MD.MaxForceTol	0.04 eV/Ang
MD.Steps	0
MD.TypeOfRun	CG
MD.UseSaveXV	F
MaxSCFIterations	500
MinSCFIterations	0
SCF.MustConverge	T
SaveDeltaRho	F
SaveElectrostaticPotential	F
SaveHS	F
SaveRho	F
SaveTotalPotential	F
SolutionMethod	diagon
Spin	non-polarized
Spin.Total	0
UseSaveData	F
WriteCoorStep	F
WriteCoorXmol	F
WriteEigenvalues	T
WriteForces	T
WriteHirshfeldPop	F
WriteKbands	F
WriteKpoints	F
WriteMDXmol	T
WriteMDhistory	F
WriteMullikenPop	0
WriteVoronoiPop	F
WriteWaveFunctions	F
SCFMustConverge	True
Spin     	non-polarized
XC.functional	GGA
XC.authors	PBE
MeshCutoff	9523.985108528535	eV
PAO.EnergyShift	0.1	eV
NumberOfSpecies	5
NumberOfAtoms	67
%block ChemicalSpecieslabel
    1 1 H.1
    2 8 O.2
    3 79 Au.gga.3
    4 79 Au.gga.4
    5 79 Au.gga.5
%endblock ChemicalSpecieslabel
%block PAO.Basis
H.1 2 0.46527
            n=1 0 2 E 99.93138 2.59932
            4.20357 1.84463
            n=2 1 1 E 24.56504 2.20231
            3.52816
O.2 3 -0.24233
            n=2 0 2 E 23.36061 3.39721
            4.50769 2.64066
            n=2 1 2 E 2.78334 5.14253
            6.14996 2.59356
            n=3 2 1 E 63.98188 0.16104
            3.54403
Au.gga.4 2
            n=6 0 2 P 1
            7.24700 5.71500
            n=5 2 2
            5.10700 2.83800
Au.gga.5 2
            n=6 0 2 P 1
            9.07500 5.78700
            n=5 2 2
            6.55700 2.87400
%endblock PAO.Basis
%block PAO.BasisSizes
    Au.gga.3	DZP
%endblock PAO.BasisSizes
LatticeConstant	1.0 Ang
%block LatticeVectors
    11.975725345373620     0.000000000000000     0.000000000000000
    0.000000000000000     10.371282377926580     0.000000000000000
    0.000000000000000     0.000000000000000     57.333623994331909
%endblock LatticeVectors
AtomicCoordinatesFormat  Ang
%block AtomicCoordinatesAndAtomicSpecies
    -0.002358084     -0.120792580     24.821123215 5
     2.962978171     -0.125001551     24.804915119 5
     5.927805721     -0.124170208     24.837219832 5
     8.902732030     -0.120088522     24.848453862 5
     1.479784851      2.448395597     24.800677759 5
     4.449460029      2.448606577     24.807587304 5
     7.420377592      2.447981598     24.854368167 5
    10.387940687      2.452189104     24.818052448 5
    -0.004808830      5.023589823     24.799906641 5
     2.962994209      5.024627960     24.774895831 5
     5.928596013      5.022922342     24.836032960 5
     8.906738766      5.019080339     24.862267298 5
     1.482296091      7.593837554     24.798735517 5
     4.443971221      7.594705627     24.794734859 5
     7.408989172      7.594005139     24.875483217 5
    10.388772660      7.591985161     24.835881934 5
     1.472736963      0.801949817     27.352635077 5
     4.444613813      0.797568091     27.361994344 5
     7.413482714      0.801975811     27.393503565 5
    10.384051991      0.809227282     27.364650546 5
    -0.013621890      3.368223753     27.336329122 5
     2.967093535      3.377206813     27.317058715 5
     5.933001700      3.374196605     27.370079627 5
     8.895111503      3.375899163     27.411617851 5
     1.477082779      5.956246084     27.322147979 5
     4.441823852      5.952549541     27.353276929 5
     7.412112722      5.940600475     27.403334994 5
    10.394077552      5.939711013     27.386695059 5
     0.007983807      8.510130107     27.351766224 5
     2.953872514      8.519782568     27.364999479 5
     5.920110230      8.517349199     27.395912503 5
     8.895921878      8.513983302     27.376089272 5
    -0.015321559      1.702131180     29.842450625 3
     2.960157489      1.702198082     29.797626058 3
     5.934879630      1.697289584     29.853188941 3
     8.904677985      1.685572543     29.891395936 3
     1.473078274      4.295859387     29.759689285 3
     4.447063381      4.277172997     29.819470470 3
     7.414537418      4.253950145     29.908016214 3
    10.380398149      4.259812224     29.869526427 3
    -0.018268350      6.840014980     29.846510018 3
     2.968305672      6.849050121     29.834624706 3
     5.932879625      6.835877556     29.879207560 3
     8.895620225      6.822629194     29.888374068 3
     1.466201410      9.417381140     29.854164087 3
     4.457069500      9.415312194     29.851280223 3
     7.418982690      9.400435678     29.886683519 3
    10.362437467      9.395321316     29.789633323 3
    -0.158825987      0.020968737     32.353610304 3
     2.971641232      0.105548628     32.385299910 3
     5.920402584      0.117429323     32.542869082 3
     8.830535783      0.090841745     32.589841014 3
     1.524560223      2.767547029     32.311754148 3
     4.474269035      2.697410166     32.455589571 3
     7.419995656      2.656401209     32.578400418 3
    10.400571169      2.661305900     32.528019002 3
    -0.052183335      5.241883526     32.479377324 3
     2.996171254      5.290250330     32.468768443 3
     5.949044405      5.251970985     32.539704008 3
     8.882154105      5.215988716     32.583175736 3
     1.440768106      7.804377327     32.446007321 3
     4.425296508      7.846663764     32.528331925 3
     7.378455144      7.812262389     32.545681769 3
    10.325418826      7.773756599     32.561626490 3
     0.654960889      1.190805026     35.017712178 2
     1.125119922      1.827856734     35.224601665 1
    -0.057983394      1.549692667     34.816037243 1
%endblock AtomicCoordinatesAndAtomicSpecies
%block DM.InitSpin
%endblock DM.InitSpin
DM.UseSaveDM	True
#KPoint grid
%block kgrid_Monkhorst_Pack
     1       0       0  0.0
     0       1       0  0.0
     0       0       1  0.0
%endblock kgrid_Monkhorst_Pack
************************** End of input data file *****************************
*** WARNING:  FDF module: fdf_read: block DM.InitSpin is empty...

reinit: -----------------------------------------------------------------------
reinit: System Name: geometry-2
reinit: -----------------------------------------------------------------------
reinit: System Label: geometry-2                                                  
reinit: -----------------------------------------------------------------------

initatom: Reading input for the pseudopotentials and atomic orbitals ----------
 Species number:            1  Label: H.1 Atomic number:           1
 Species number:            2  Label: O.2 Atomic number:           8
 Species number:            3  Label: Au.gga.3 Atomic number:          79
 Species number:            4  Label: Au.gga.4 Atomic number:          79
 Species number:            5  Label: Au.gga.5 Atomic number:          79
Ground state valence configuration:   1s01
Reading pseudopotential information in formatted form from H.1.psf

Valence configuration for pseudopotential generation:
1s( 1.00) rc: 1.25
2p( 0.00) rc: 1.25
3d( 0.00) rc: 1.25
4f( 0.00) rc: 1.25
Ground state valence configuration:   2s02  2p04
Reading pseudopotential information in formatted form from O.2.psf

Valence configuration for pseudopotential generation:
2s( 2.00) rc: 1.14
2p( 4.00) rc: 1.14
3d( 0.00) rc: 1.14
4f( 0.00) rc: 1.14
Ground state valence configuration:   6s01  5d10
Reading pseudopotential information in formatted form from Au.gga.3.psf

Pseudopotential generated from a relativistic atomic calculation
There are spin-orbit pseudopotentials available
Spin-orbit interaction is not included in this calculation

Valence configuration for pseudopotential generation:
6s( 1.00) rc: 2.32
6p( 0.50) rc: 2.29
5d( 9.50) rc: 2.24
5f( 0.00) rc: 2.00
Ground state valence configuration:   6s01  5d10
Reading pseudopotential information in formatted form from Au.gga.4.psf

Pseudopotential generated from a relativistic atomic calculation
There are spin-orbit pseudopotentials available
Spin-orbit interaction is not included in this calculation

Valence configuration for pseudopotential generation:
6s( 1.00) rc: 2.32
6p( 0.50) rc: 2.29
5d( 9.50) rc: 2.24
5f( 0.00) rc: 2.00
Ground state valence configuration:   6s01  5d10
Reading pseudopotential information in formatted form from Au.gga.5.psf

Pseudopotential generated from a relativistic atomic calculation
There are spin-orbit pseudopotentials available
Spin-orbit interaction is not included in this calculation

Valence configuration for pseudopotential generation:
6s( 1.00) rc: 2.32
6p( 0.50) rc: 2.29
5d( 9.50) rc: 2.24
5f( 0.00) rc: 2.00
resizes: Read basis size for species Au.gga.3 = dzp                 
For H.1, standard SIESTA heuristics set lmxkb to 2
 (one more than the basis l, including polarization orbitals).
Use PS.lmax or PS.KBprojectors blocks to override.
For O.2, standard SIESTA heuristics set lmxkb to 3
 (one more than the basis l, including polarization orbitals).
Use PS.lmax or PS.KBprojectors blocks to override.
For Au.gga.3, standard SIESTA heuristics set lmxkb to 3
 (one more than the basis l, including polarization orbitals).
Use PS.lmax or PS.KBprojectors blocks to override.
For Au.gga.4, standard SIESTA heuristics set lmxkb to 3
 (one more than the basis l, including polarization orbitals).
Use PS.lmax or PS.KBprojectors blocks to override.
 Warning: Empty PAO shell. l =           1
 Will have a KB projector anyway...
For Au.gga.5, standard SIESTA heuristics set lmxkb to 3
 (one more than the basis l, including polarization orbitals).
Use PS.lmax or PS.KBprojectors blocks to override.
 Warning: Empty PAO shell. l =           1
 Will have a KB projector anyway...

<basis_specs>
===============================================================================
H.1                  Z=   1    Mass=  1.0100        Charge= 0.46527    
Lmxo=1 Lmxkb= 2    BasisType=split      Semic=F
L=0  Nsemic=0  Cnfigmx=1
          n=1  nzeta=2  polorb=0
            splnorm:   0.15000    
               vcte:    99.931    
               rinn:    2.5993    
               qcoe:    0.0000    
               qyuk:    0.0000    
               qwid:   0.10000E-01
                rcs:    4.2036      1.8446    
            lambdas:    1.0000      1.0000    
L=1  Nsemic=0  Cnfigmx=2
          n=1  nzeta=1  polorb=0
            splnorm:   0.15000    
               vcte:    24.565    
               rinn:    2.2023    
               qcoe:    0.0000    
               qyuk:    0.0000    
               qwid:   0.10000E-01
                rcs:    3.5282    
            lambdas:    1.0000    
-------------------------------------------------------------------------------
L=0  Nkbl=1  erefs: 0.17977+309
L=1  Nkbl=1  erefs: 0.17977+309
L=2  Nkbl=1  erefs: 0.17977+309
===============================================================================
</basis_specs>

atom: Called for H.1                   (Z =   1)

read_vps: Pseudopotential generation method:
read_vps: ATM3      Troullier-Martins                       
Total valence charge:    1.00000

xc_check: Exchange-correlation functional:
xc_check: GGA Perdew, Burke & Ernzerhof 1996
V l=0 = -2*Zval/r beyond r=  1.2343
V l=1 = -2*Zval/r beyond r=  1.2189
V l=2 = -2*Zval/r beyond r=  1.2189
All V_l potentials equal beyond r=  1.2343
This should be close to max(r_c) in ps generation
All pots = -2*Zval/r beyond r=  1.2343

VLOCAL1: 99.0% of the norm of Vloc inside     28.493 Ry
VLOCAL1: 99.9% of the norm of Vloc inside     64.935 Ry
atom: Maximum radius for 4*pi*r*r*local-pseudopot. charge    1.45251
atom: Maximum radius for r*vlocal+2*Zval:    1.21892
GHOST: No ghost state for L =  0
GHOST: No ghost state for L =  1
GHOST: No ghost state for L =  2

KBgen: Kleinman-Bylander projectors: 
   l= 0   rc=  1.364359   el= -0.477200   Ekb= -2.021939   kbcos= -0.344793
   l= 1   rc=  1.434438   el=  0.001076   Ekb= -0.443447   kbcos= -0.022843
   l= 2   rc=  1.470814   el=  0.002010   Ekb= -0.140543   kbcos= -0.002863

KBgen: Total number of  Kleinman-Bylander projectors:    9
atom: -------------------------------------------------------------------------

atom: SANKEY-TYPE ORBITALS:
atom: Selected multiple-zeta basis: split     

atom: basis set generated (by rescaling the valence charge)
atom: for a cation of charge   0.4653

SPLIT: Orbitals with angular momentum L= 0

SPLIT: Basis orbitals for state 1s

   izeta = 1
                 lambda =    1.000000
                     rc =    4.260636
                 energy =   -0.870244
                kinetic =    1.359204
    potential(screened) =   -2.229448
       potential(ionic) =   -2.289196

   izeta = 2
                 rmatch =    1.865767
              splitnorm =    0.575659
                 energy =    0.485405
                kinetic =    4.355632
    potential(screened) =   -3.870227
       potential(ionic) =   -3.839117

SPLIT: Orbitals with angular momentum L= 1

SPLIT: Basis orbitals for state 2p

   izeta = 1
                 lambda =    1.000000
                     rc =    3.576223
                 energy =    0.828629
                kinetic =    2.006518
    potential(screened) =   -1.177889
       potential(ionic) =   -1.299048
atom: Total number of Sankey-type orbitals:  5

atm_pop: Valence configuration (for local Pseudopot. screening):
 1s( 1.00)                                                            
 2p( 0.00)                                                            
Vna: chval, zval:    1.00000   1.00000

Vna:  Cut-off radius for the neutral-atom potential:   4.260636

atom: _________________________________________________________________________

<basis_specs>
===============================================================================
O.2                  Z=   8    Mass=  16.000        Charge=-0.24233    
Lmxo=2 Lmxkb= 3    BasisType=split      Semic=F
L=0  Nsemic=0  Cnfigmx=2
          n=1  nzeta=2  polorb=0
            splnorm:   0.15000    
               vcte:    23.361    
               rinn:    3.3972    
               qcoe:    0.0000    
               qyuk:    0.0000    
               qwid:   0.10000E-01
                rcs:    4.5077      2.6407    
            lambdas:    1.0000      1.0000    
L=1  Nsemic=0  Cnfigmx=2
          n=1  nzeta=2  polorb=0
            splnorm:   0.15000    
               vcte:    2.7833    
               rinn:    5.1425    
               qcoe:    0.0000    
               qyuk:    0.0000    
               qwid:   0.10000E-01
                rcs:    6.1500      2.5936    
            lambdas:    1.0000      1.0000    
L=2  Nsemic=0  Cnfigmx=3
          n=1  nzeta=1  polorb=0
            splnorm:   0.15000    
               vcte:    63.982    
               rinn:   0.16104    
               qcoe:    0.0000    
               qyuk:    0.0000    
               qwid:   0.10000E-01
                rcs:    3.5440    
            lambdas:    1.0000    
-------------------------------------------------------------------------------
L=0  Nkbl=1  erefs: 0.17977+309
L=1  Nkbl=1  erefs: 0.17977+309
L=2  Nkbl=1  erefs: 0.17977+309
L=3  Nkbl=1  erefs: 0.17977+309
===============================================================================
</basis_specs>

atom: Called for O.2                   (Z =   8)

read_vps: Pseudopotential generation method:
read_vps:  ATM3      Troullier-Martins                      
Total valence charge:    6.00000

read_vps: Pseudopotential includes a core correction:
read_vps: Pseudo-core for xc-correction

xc_check: Exchange-correlation functional:
xc_check: GGA Perdew, Burke & Ernzerhof 1996
V l=0 = -2*Zval/r beyond r=  1.1278
V l=1 = -2*Zval/r beyond r=  1.1278
V l=2 = -2*Zval/r beyond r=  1.1278
V l=3 = -2*Zval/r beyond r=  1.1278
All V_l potentials equal beyond r=  1.1278
This should be close to max(r_c) in ps generation
All pots = -2*Zval/r beyond r=  1.1278

VLOCAL1: 99.0% of the norm of Vloc inside     34.126 Ry
VLOCAL1: 99.9% of the norm of Vloc inside     77.774 Ry
atom: Maximum radius for 4*pi*r*r*local-pseudopot. charge    1.37759
atom: Maximum radius for r*vlocal+2*Zval:    1.18566
GHOST: No ghost state for L =  0
GHOST: No ghost state for L =  1
GHOST: No ghost state for L =  2
GHOST: No ghost state for L =  3

KBgen: Kleinman-Bylander projectors: 
   l= 0   rc=  1.262145   el= -1.757696   Ekb=  9.224596   kbcos=  0.328556
   l= 1   rc=  1.262145   el= -0.664256   Ekb= -7.912306   kbcos= -0.392969
   l= 2   rc=  1.343567   el=  0.002031   Ekb= -1.926788   kbcos= -0.003514
   l= 3   rc=  1.394919   el=  0.003153   Ekb= -0.739398   kbcos= -0.000358

KBgen: Total number of  Kleinman-Bylander projectors:   16
atom: -------------------------------------------------------------------------

atom: SANKEY-TYPE ORBITALS:
atom: Selected multiple-zeta basis: split     

atom: basis set generated (by rescaling the valence charge)
atom: for an anion of charge  -0.2423

SPLIT: Orbitals with angular momentum L= 0

SPLIT: Basis orbitals for state 2s

   izeta = 1
                 lambda =    1.000000
                     rc =    4.574469
                 energy =   -1.754696
                kinetic =    1.490911
    potential(screened) =   -3.245607
       potential(ionic) =  -11.056427

   izeta = 2
                 rmatch =    2.639108
              splitnorm =    0.147030
                 energy =   -1.549984
                kinetic =    2.329575
    potential(screened) =   -3.879559
       potential(ionic) =  -12.330999

SPLIT: Orbitals with angular momentum L= 1

SPLIT: Basis orbitals for state 2p

   izeta = 1
                 lambda =    1.000000
                     rc =    6.174996
                 energy =   -0.657402
                kinetic =    4.283935
    potential(screened) =   -4.941337
       potential(ionic) =  -12.290306

   izeta = 2
                 rmatch =    2.639108
              splitnorm =    0.214868
                 energy =   -0.410830
                kinetic =    7.128181
    potential(screened) =   -7.539011
       potential(ionic) =  -16.115673

SPLIT: Orbitals with angular momentum L= 2

SPLIT: Basis orbitals for state 3d

   izeta = 1
                 lambda =    1.000000
                     rc =    3.562532
                 energy =    3.658839
                kinetic =    6.488139
    potential(screened) =   -2.829300
       potential(ionic) =  -10.001503
atom: Total number of Sankey-type orbitals: 13

atm_pop: Valence configuration (for local Pseudopot. screening):
 2s( 2.00)                                                            
 2p( 4.00)                                                            
 3d( 0.00)                                                            
Vna: chval, zval:    6.00000   6.00000

Vna:  Cut-off radius for the neutral-atom potential:   6.174996
comcore: Pseudo-core radius Rcore=  1.377587

atom: _________________________________________________________________________

<basis_specs>
===============================================================================
Au.gga.3             Z=  79    Mass=  196.97        Charge= 0.17977+309
Lmxo=2 Lmxkb= 3    BasisType=split      Semic=F
L=0  Nsemic=0  Cnfigmx=6
          n=1  nzeta=2  polorb=1
            splnorm:   0.15000    
               vcte:    0.0000    
               rinn:    0.0000    
               qcoe:    0.0000    
               qyuk:    0.0000    
               qwid:   0.10000E-01
                rcs:    0.0000      0.0000    
            lambdas:    1.0000      1.0000    
L=1  Nsemic=0  Cnfigmx=6
L=2  Nsemic=0  Cnfigmx=5
          n=1  nzeta=2  polorb=0
            splnorm:   0.15000    
               vcte:    0.0000    
               rinn:    0.0000    
               qcoe:    0.0000    
               qyuk:    0.0000    
               qwid:   0.10000E-01
                rcs:    0.0000      0.0000    
            lambdas:    1.0000      1.0000    
-------------------------------------------------------------------------------
L=0  Nkbl=1  erefs: 0.17977+309
L=1  Nkbl=1  erefs: 0.17977+309
L=2  Nkbl=1  erefs: 0.17977+309
L=3  Nkbl=1  erefs: 0.17977+309
===============================================================================
</basis_specs>

atom: Called for Au.gga.3              (Z =  79)

read_vps: Pseudopotential generation method:
read_vps: ATM3      Troullier-Martins                       
Total valence charge:   11.00000

read_vps: Pseudopotential includes a core correction:
read_vps: Pseudo-core for xc-correction

xc_check: Exchange-correlation functional:
xc_check: GGA Perdew, Burke & Ernzerhof 1996
V l=0 = -2*Zval/r beyond r=  2.9833
V l=1 = -2*Zval/r beyond r=  2.9833
V l=2 = -2*Zval/r beyond r=  2.9833
V l=3 = -2*Zval/r beyond r=  2.9833
All V_l potentials equal beyond r=  2.2946
This should be close to max(r_c) in ps generation
All pots = -2*Zval/r beyond r=  2.9833
Using large-core scheme for Vlocal

atom: Estimated core radius    2.98333
atom: Maximum radius for 4*pi*r*r*local-pseudopot. charge    3.25614
atom: Maximum radius for r*vlocal+2*Zval:    3.02086
GHOST: No ghost state for L =  0
GHOST: No ghost state for L =  1
GHOST: No ghost state for L =  2
GHOST: No ghost state for L =  3

KBgen: Kleinman-Bylander projectors: 
   l= 0   rc=  2.382235   el= -0.513519   Ekb=  5.087925   kbcos=  0.278237
   l= 1   rc=  2.382235   el= -0.109829   Ekb=  2.881759   kbcos=  0.226107
   l= 2   rc=  2.382235   el= -0.663286   Ekb= -4.434057   kbcos= -0.694733
   l= 3   rc=  2.382235   el=  0.003083   Ekb= -2.571105   kbcos= -0.013009

KBgen: Total number of  Kleinman-Bylander projectors:   16
atom: -------------------------------------------------------------------------

atom: SANKEY-TYPE ORBITALS:
atom: Selected multiple-zeta basis: split     

SPLIT: Orbitals with angular momentum L= 0

SPLIT: Basis orbitals for state 6s

SPLIT: PAO cut-off radius determined from an
SPLIT: energy shift=  0.007350 Ry

   izeta = 1
                 lambda =    1.000000
                     rc =    6.723087
                 energy =   -0.506600
                kinetic =    0.398622
    potential(screened) =   -0.905223
       potential(ionic) =   -8.548368

   izeta = 2
                 rmatch =    5.643738
              splitnorm =    0.150000
                 energy =   -0.431591
                kinetic =    0.653484
    potential(screened) =   -1.085075
       potential(ionic) =   -9.245123

SPLIT: Orbitals with angular momentum L= 2

SPLIT: Basis orbitals for state 5d

SPLIT: PAO cut-off radius determined from an
SPLIT: energy shift=  0.007350 Ry

   izeta = 1
                 lambda =    1.000000
                     rc =    4.737670
                 energy =   -0.656650
                kinetic =    5.068938
    potential(screened) =   -5.725588
       potential(ionic) =  -16.071180

   izeta = 2
                 rmatch =    2.802581
              splitnorm =    0.150000
                 energy =   -0.349126
                kinetic =    7.097014
    potential(screened) =   -7.446140
       potential(ionic) =  -18.531204

POLgen: Perturbative polarization orbital with L=  1

POLgen: Polarization orbital for state 6s

   izeta = 1
                     rc =    6.723087
                 energy =   -0.153149
                kinetic =    0.703267
    potential(screened) =   -0.856416
       potential(ionic) =   -8.074316
atom: Total number of Sankey-type orbitals: 15

atm_pop: Valence configuration (for local Pseudopot. screening):
 6s( 1.00)                                                            
 6p( 0.00)                                                            
 5d(10.00)                                                            
Vna: chval, zval:   11.00000  11.00000

Vna:  Cut-off radius for the neutral-atom potential:   6.723087
comcore: Pseudo-core radius Rcore=  3.977066

atom: _________________________________________________________________________

<basis_specs>
===============================================================================
Au.gga.4             Z=  79    Mass=  196.97        Charge= 0.17977+309
Lmxo=2 Lmxkb= 3    BasisType=split      Semic=F
L=0  Nsemic=0  Cnfigmx=6
          n=1  nzeta=2  polorb=1
            splnorm:   0.15000    
               vcte:    0.0000    
               rinn:    0.0000    
               qcoe:    0.0000    
               qyuk:    0.0000    
               qwid:   0.10000E-01
                rcs:    7.2470      5.7150    
            lambdas:    1.0000      1.0000    
L=1  Nsemic=0  Cnfigmx=6
L=2  Nsemic=0  Cnfigmx=5
          n=1  nzeta=2  polorb=0
            splnorm:   0.15000    
               vcte:    0.0000    
               rinn:    0.0000    
               qcoe:    0.0000    
               qyuk:    0.0000    
               qwid:   0.10000E-01
                rcs:    5.1070      2.8380    
            lambdas:    1.0000      1.0000    
-------------------------------------------------------------------------------
L=0  Nkbl=1  erefs: 0.17977+309
L=1  Nkbl=1  erefs: 0.17977+309
L=2  Nkbl=1  erefs: 0.17977+309
L=3  Nkbl=1  erefs: 0.17977+309
===============================================================================
</basis_specs>

atom: Called for Au.gga.4              (Z =  79)

read_vps: Pseudopotential generation method:
read_vps: ATM3      Troullier-Martins                       
Total valence charge:   11.00000

read_vps: Pseudopotential includes a core correction:
read_vps: Pseudo-core for xc-correction

xc_check: Exchange-correlation functional:
xc_check: GGA Perdew, Burke & Ernzerhof 1996
V l=0 = -2*Zval/r beyond r=  2.9833
V l=1 = -2*Zval/r beyond r=  2.9833
V l=2 = -2*Zval/r beyond r=  2.9833
V l=3 = -2*Zval/r beyond r=  2.9833
All V_l potentials equal beyond r=  2.2946
This should be close to max(r_c) in ps generation
All pots = -2*Zval/r beyond r=  2.9833
Using large-core scheme for Vlocal

atom: Estimated core radius    2.98333
atom: Maximum radius for 4*pi*r*r*local-pseudopot. charge    3.25614
atom: Maximum radius for r*vlocal+2*Zval:    3.02086
GHOST: No ghost state for L =  0
GHOST: No ghost state for L =  1
GHOST: No ghost state for L =  2
GHOST: No ghost state for L =  3

KBgen: Kleinman-Bylander projectors: 
   l= 0   rc=  2.382235   el= -0.513519   Ekb=  5.087925   kbcos=  0.278237
   l= 1   rc=  2.382235   el= -0.109829   Ekb=  2.881759   kbcos=  0.226107
   l= 2   rc=  2.382235   el= -0.663286   Ekb= -4.434057   kbcos= -0.694733
   l= 3   rc=  2.382235   el=  0.003083   Ekb= -2.571105   kbcos= -0.013009

KBgen: Total number of  Kleinman-Bylander projectors:   16
atom: -------------------------------------------------------------------------

atom: SANKEY-TYPE ORBITALS:
atom: Selected multiple-zeta basis: split     

SPLIT: Orbitals with angular momentum L= 0

SPLIT: Basis orbitals for state 6s

   izeta = 1
                 lambda =    1.000000
                     rc =    7.246712
                 energy =   -0.510007
                kinetic =    0.385781
    potential(screened) =   -0.895788
       potential(ionic) =   -8.490322

   izeta = 2
                 rmatch =    5.786611
              splitnorm =    0.137361
                 energy =   -0.445151
                kinetic =    0.623150
    potential(screened) =   -1.068301
       potential(ionic) =   -9.190366

SPLIT: Orbitals with angular momentum L= 2

SPLIT: Basis orbitals for state 5d

   izeta = 1
                 lambda =    1.000000
                     rc =    5.106662
                 energy =   -0.659762
                kinetic =    5.025587
    potential(screened) =   -5.685349
       potential(ionic) =  -16.000690

   izeta = 2
                 rmatch =    2.873530
              splitnorm =    0.141056
                 energy =   -0.387690
                kinetic =    6.936955
    potential(screened) =   -7.324646
       potential(ionic) =  -18.374036

POLgen: Perturbative polarization orbital with L=  1

POLgen: Polarization orbital for state 6s

   izeta = 1
                     rc =    7.246712
                 energy =   -0.163164
                kinetic =    0.676967
    potential(screened) =   -0.840131
       potential(ionic) =   -7.980465
atom: Total number of Sankey-type orbitals: 15

atm_pop: Valence configuration (for local Pseudopot. screening):
 6s( 1.00)                                                            
 6p( 0.00)                                                            
 5d(10.00)                                                            
Vna: chval, zval:   11.00000  11.00000

Vna:  Cut-off radius for the neutral-atom potential:   7.246712
comcore: Pseudo-core radius Rcore=  3.977066

atom: _________________________________________________________________________

<basis_specs>
===============================================================================
Au.gga.5             Z=  79    Mass=  196.97        Charge= 0.17977+309
Lmxo=2 Lmxkb= 3    BasisType=split      Semic=F
L=0  Nsemic=0  Cnfigmx=6
          n=1  nzeta=2  polorb=1
            splnorm:   0.15000    
               vcte:    0.0000    
               rinn:    0.0000    
               qcoe:    0.0000    
               qyuk:    0.0000    
               qwid:   0.10000E-01
                rcs:    9.0750      5.7870    
            lambdas:    1.0000      1.0000    
L=1  Nsemic=0  Cnfigmx=6
L=2  Nsemic=0  Cnfigmx=5
          n=1  nzeta=2  polorb=0
            splnorm:   0.15000    
               vcte:    0.0000    
               rinn:    0.0000    
               qcoe:    0.0000    
               qyuk:    0.0000    
               qwid:   0.10000E-01
                rcs:    6.5570      2.8740    
            lambdas:    1.0000      1.0000    
-------------------------------------------------------------------------------
L=0  Nkbl=1  erefs: 0.17977+309
L=1  Nkbl=1  erefs: 0.17977+309
L=2  Nkbl=1  erefs: 0.17977+309
L=3  Nkbl=1  erefs: 0.17977+309
===============================================================================
</basis_specs>

atom: Called for Au.gga.5              (Z =  79)

read_vps: Pseudopotential generation method:
read_vps: ATM3      Troullier-Martins                       
Total valence charge:   11.00000

read_vps: Pseudopotential includes a core correction:
read_vps: Pseudo-core for xc-correction

xc_check: Exchange-correlation functional:
xc_check: GGA Perdew, Burke & Ernzerhof 1996
V l=0 = -2*Zval/r beyond r=  2.9833
V l=1 = -2*Zval/r beyond r=  2.9833
V l=2 = -2*Zval/r beyond r=  2.9833
V l=3 = -2*Zval/r beyond r=  2.9833
All V_l potentials equal beyond r=  2.2946
This should be close to max(r_c) in ps generation
All pots = -2*Zval/r beyond r=  2.9833
Using large-core scheme for Vlocal

atom: Estimated core radius    2.98333
atom: Maximum radius for 4*pi*r*r*local-pseudopot. charge    3.25614
atom: Maximum radius for r*vlocal+2*Zval:    3.02086
GHOST: No ghost state for L =  0
GHOST: No ghost state for L =  1
GHOST: No ghost state for L =  2
GHOST: No ghost state for L =  3

KBgen: Kleinman-Bylander projectors: 
   l= 0   rc=  2.382235   el= -0.513519   Ekb=  5.087925   kbcos=  0.278237
   l= 1   rc=  2.382235   el= -0.109829   Ekb=  2.881759   kbcos=  0.226107
   l= 2   rc=  2.382235   el= -0.663286   Ekb= -4.434057   kbcos= -0.694733
   l= 3   rc=  2.382235   el=  0.003083   Ekb= -2.571105   kbcos= -0.013009

KBgen: Total number of  Kleinman-Bylander projectors:   16
atom: -------------------------------------------------------------------------

atom: SANKEY-TYPE ORBITALS:
atom: Selected multiple-zeta basis: split     

SPLIT: Orbitals with angular momentum L= 0

SPLIT: Basis orbitals for state 6s

   izeta = 1
                 lambda =    1.000000
                     rc =    9.075230
                 energy =   -0.513232
                kinetic =    0.370471
    potential(screened) =   -0.883703
       potential(ionic) =   -8.414024

   izeta = 2
                 rmatch =    5.786611
              splitnorm =    0.148012
                 energy =   -0.446211
                kinetic =    0.620438
    potential(screened) =   -1.066649
       potential(ionic) =   -9.184844

SPLIT: Orbitals with angular momentum L= 2

SPLIT: Basis orbitals for state 5d

   izeta = 1
                 lambda =    1.000000
                     rc =    6.557093
                 energy =   -0.663050
                kinetic =    4.966809
    potential(screened) =   -5.629858
       potential(ionic) =  -15.898967

   izeta = 2
                 rmatch =    2.873530
              splitnorm =    0.149391
                 energy =   -0.387750
                kinetic =    6.936394
    potential(screened) =   -7.324143
       potential(ionic) =  -18.373423

POLgen: Perturbative polarization orbital with L=  1

POLgen: Polarization orbital for state 6s

   izeta = 1
                     rc =    9.075230
                 energy =   -0.175654
                kinetic =    0.640919
    potential(screened) =   -0.816572
       potential(ionic) =   -7.839035
atom: Total number of Sankey-type orbitals: 15

atm_pop: Valence configuration (for local Pseudopot. screening):
 6s( 1.00)                                                            
 6p( 0.00)                                                            
 5d(10.00)                                                            
Vna: chval, zval:   11.00000  11.00000

Vna:  Cut-off radius for the neutral-atom potential:   9.075230
comcore: Pseudo-core radius Rcore=  3.977066

atom: _________________________________________________________________________

prinput: Basis input ----------------------------------------------------------

PAO.BasisType split     

%block ChemicalSpeciesLabel
    1    1 H.1                     # Species index, atomic number, species label
    2    8 O.2                     # Species index, atomic number, species label
    3   79 Au.gga.3                # Species index, atomic number, species label
    4   79 Au.gga.4                # Species index, atomic number, species label
    5   79 Au.gga.5                # Species index, atomic number, species label
%endblock ChemicalSpeciesLabel

%block PAO.Basis                 # Define Basis set
H.1                   2   0.465            # Label, l-shells, ionic net charge
 n=1   0   2                         # n, l, Nzeta 
   4.261      1.866   
   1.000      1.000   
 n=2   1   1                         # n, l, Nzeta 
   3.576   
   1.000   
O.2                   3  -0.242            # Label, l-shells, ionic net charge
 n=2   0   2                         # n, l, Nzeta 
   4.574      2.639   
   1.000      1.000   
 n=2   1   2                         # n, l, Nzeta 
   6.175      2.639   
   1.000      1.000   
 n=3   2   1                         # n, l, Nzeta 
   3.563   
   1.000   
Au.gga.3              2                    # Species label, number of l-shells
 n=6   0   2 P   1                   # n, l, Nzeta, Polarization, NzetaPol
   6.723      5.644   
   1.000      1.000   
 n=5   2   2                         # n, l, Nzeta 
   4.738      2.803   
   1.000      1.000   
Au.gga.4              2                    # Species label, number of l-shells
 n=6   0   2 P   1                   # n, l, Nzeta, Polarization, NzetaPol
   7.247      5.787   
   1.000      1.000   
 n=5   2   2                         # n, l, Nzeta 
   5.107      2.874   
   1.000      1.000   
Au.gga.5              2                    # Species label, number of l-shells
 n=6   0   2 P   1                   # n, l, Nzeta, Polarization, NzetaPol
   9.075      5.787   
   1.000      1.000   
 n=5   2   2                         # n, l, Nzeta 
   6.557      2.874   
   1.000      1.000   
%endblock PAO.Basis

prinput: ----------------------------------------------------------------------

Dumping basis to NetCDF file H.1.ion.nc
Dumping basis to NetCDF file O.2.ion.nc
Dumping basis to NetCDF file Au.gga.3.ion.nc
Dumping basis to NetCDF file Au.gga.4.ion.nc
Dumping basis to NetCDF file Au.gga.5.ion.nc
coor:   Atomic-coordinates input format  =     Cartesian coordinates
coor:                                          (in Angstroms)

siesta: Atomic coordinates (Bohr) and species
siesta:     -0.00446  -0.22826  46.90514  5        1
siesta:      5.59922  -0.23622  46.87451  5        2
siesta:     11.20193  -0.23465  46.93556  5        3
siesta:     16.82373  -0.22693  46.95679  5        4
siesta:      2.79639   4.62680  46.86651  5        5
siesta:      8.40826   4.62720  46.87956  5        6
siesta:     14.02249   4.62602  46.96797  5        7
siesta:     19.63037   4.63397  46.89934  5        8
siesta:     -0.00909   9.49321  46.86505  5        9
siesta:      5.59925   9.49517  46.81779  5       10
siesta:     11.20343   9.49195  46.93332  5       11
siesta:     16.83130   9.48469  46.98289  5       12
siesta:      2.80113  14.35028  46.86284  5       13
siesta:      8.39789  14.35192  46.85528  5       14
siesta:     14.00097  14.35060  47.00787  5       15
siesta:     19.63194  14.34678  46.93303  5       16
siesta:      2.78307   1.51547  51.68901  5       17
siesta:      8.39911   1.50719  51.70670  5       18
siesta:     14.00946   1.51552  51.76624  5       19
siesta:     19.62302   1.52922  51.71172  5       20
siesta:     -0.02574   6.36502  51.65820  5       21
siesta:      5.60700   6.38200  51.62178  5       22
siesta:     11.21175   6.37631  51.72198  5       23
siesta:     16.80933   6.37953  51.80047  5       24
siesta:      2.79128  11.25568  51.63140  5       25
siesta:      8.39383  11.24869  51.69022  5       26
siesta:     14.00687  11.22611  51.78482  5       27
siesta:     19.64197  11.22443  51.75337  5       28
siesta:      0.01509  16.08182  51.68737  5       29
siesta:      5.58201  16.10006  51.71238  5       30
siesta:     11.18739  16.09546  51.77079  5       31
siesta:     16.81086  16.08910  51.73333  5       32
siesta:     -0.02895   3.21656  56.39408  3       33
siesta:      5.59389   3.21669  56.30937  3       34
siesta:     11.21530   3.20741  56.41437  3       35
siesta:     16.82741   3.18527  56.48657  3       36
siesta:      2.78372   8.11800  56.23768  3       37
siesta:      8.40374   8.08269  56.35065  3       38
siesta:     14.01145   8.03880  56.51798  3       39
siesta:     19.61612   8.04988  56.44525  3       40
siesta:     -0.03452  12.92576  56.40175  3       41
siesta:      5.60929  12.94283  56.37929  3       42
siesta:     11.21152  12.91794  56.46354  3       43
siesta:     16.81029  12.89291  56.48086  3       44
siesta:      2.77072  17.79628  56.41622  3       45
siesta:      8.42264  17.79237  56.41077  3       46
siesta:     14.01985  17.76426  56.47767  3       47
siesta:     19.58218  17.75459  56.29427  3       48
siesta:     -0.30014   0.03963  61.13949  3       49
siesta:      5.61559   0.19946  61.19937  3       50
siesta:     11.18794   0.22191  61.49713  3       51
siesta:     16.68730   0.17167  61.58590  3       52
siesta:      2.88100   5.22991  61.06039  3       53
siesta:      8.45515   5.09737  61.33220  3       54
siesta:     14.02177   5.01987  61.56428  3       55
siesta:     19.65424   5.02914  61.46907  3       56
siesta:     -0.09861   9.90573  61.37715  3       57
siesta:      5.66195   9.99713  61.35710  3       58
siesta:     11.24207   9.92479  61.49115  3       59
siesta:     16.78485   9.85679  61.57330  3       60
siesta:      2.72266  14.74814  61.31409  3       61
siesta:      8.36260  14.82805  61.46966  3       62
siesta:     13.94327  14.76304  61.50245  3       63
siesta:     19.51222  14.69028  61.53258  3       64
siesta:      1.23770   2.25030  66.17391  2       65
siesta:      2.12617   3.45415  66.56488  1       66
siesta:     -0.10957   2.92850  65.79280  1       67

siesta: System type = slab      

initatomlists: Number of atoms, orbitals, and projectors:     67   983  1058

siesta: ******************** Simulation parameters ****************************
siesta:
siesta: The following are some of the parameters of the simulation.
siesta: A complete list of the parameters used, including default values,
siesta: can be found in file out.fdf
siesta:
redata: Non-Collinear-spin run           =     F
redata: SpinPolarized (Up/Down) run      =     F
redata: Number of spin components        =     1
redata: Long output                      =     F
redata: Number of Atomic Species         =        5
redata: Charge density info will appear in .RHO file
redata: Write Mulliken Pop.              =     NO
redata: Mesh Cutoff                      =   699.9937  Ry
redata: Net charge of the system         =     0.0000 |e|
redata: Min. number of SCF Iter          =        0
redata: Max. number of SCF Iter          =      500
redata: SCF convergence failure will abort job
redata: Mix DM or H after convergence    =     F
redata: Recompute H after scf cycle      =     F
redata: Performing Pulay mixing using    =     3 iterations
redata: Mix DM in first SCF step ?       =     F
redata: Write Pulay info on disk?        =     F
redata: Discard 1st Pulay DM after  kick =     F
redata: New DM Mixing Weight             =     0.0300
redata: New DM Occupancy tolerance       = 0.000000000001
redata: No kicks to SCF
redata: DM Mixing Weight for Kicks       =     0.5000
redata: DM Tolerance for SCF             =     0.000100
redata: Require (free) Energy convergence in SCF =     F
redata: DM (free)Energy tolerance for SCF =     0.000010 eV
redata: Require Harris convergence for SCF =     F
redata: DM Harris energy tolerance for SCF =     0.000010 eV
redata: Using Saved Data (generic)   =     F
redata: Use continuation files for DM    =     F
redata: Neglect nonoverlap interactions  =     F
redata: Method of Calculation            =     Diagonalization
redata: Divide and Conquer               =     T
redata: Electronic Temperature           =     0.0037  Ry
redata: Fix the spin of the system       =     F
redata: Dynamics option                  =     Single-point calculation
redata: ***********************************************************************
Total number of electrons:   712.000000
Total ionic charge:   712.000000

* ProcessorY, Blocksize:    4  24


* Orbital distribution balance (max,min):    48    24

 Kpoints in:            1 . Kpoints trimmed:            1

siesta: k-grid: Number of k-points =     1
siesta: k-grid: Cutoff (effective) =     5.186 Ang
siesta: k-grid: Supercell and displacements
siesta: k-grid:    1   0   0      0.000
siesta: k-grid:    0   1   0      0.000
siesta: k-grid:    0   0   1      0.000

                     ====================================
                        Single-point calculation
                     ====================================

outcell: Unit cell vectors (Ang):
       11.975725    0.000000    0.000000
        0.000000   10.371282    0.000000
        0.000000    0.000000   57.333624

outcell: Cell vector modules (Ang)   :   11.975725   10.371282   57.333624
outcell: Cell angles (23,13,12) (deg):     90.0000     90.0000     90.0000
outcell: Cell volume (Ang**3)        :   7121.0442
 Folding of H and S is implicitly performed
New_DM. Step:     1
Initializing Density Matrix...

initdm: WARNING: DM.InitSpin not used because nspin < 2
New grid distribution:   1
           1       1:   96    1:   23    1:   60
           2       1:   96    1:   23   61:  120
           3       1:   96    1:   23  121:  180
           4       1:   96    1:   23  181:  240
           5       1:   96    1:   23  241:  300
           6       1:   96    1:   23  301:  360
           7       1:   96    1:   23  361:  420
           8       1:   96    1:   23  421:  480
           9       1:   96   24:   46    1:   60
          10       1:   96   24:   46   61:  120
          11       1:   96   24:   46  121:  180
          12       1:   96   24:   46  181:  240
          13       1:   96   24:   46  241:  300
          14       1:   96   24:   46  301:  360
          15       1:   96   24:   46  361:  420
          16       1:   96   24:   46  421:  480
          17       1:   96   47:   68    1:   60
          18       1:   96   47:   68   61:  120
          19       1:   96   47:   68  121:  180
          20       1:   96   47:   68  181:  240
          21       1:   96   47:   68  241:  300
          22       1:   96   47:   68  301:  360
          23       1:   96   47:   68  361:  420
          24       1:   96   47:   68  421:  480
          25       1:   96   69:   90    1:   60
          26       1:   96   69:   90   61:  120
          27       1:   96   69:   90  121:  180
          28       1:   96   69:   90  181:  240
          29       1:   96   69:   90  241:  300
          30       1:   96   69:   90  301:  360
          31       1:   96   69:   90  361:  420
          32       1:   96   69:   90  421:  480

InitMesh: MESH =   192 x   180 x   960 =    33177600
InitMesh: (bp) =    96 x    90 x   480 =     4147200
InitMesh: Mesh cutoff (required, used) =   699.994   710.396 Ry
ExtMesh (bp) on 0 =   252 x   191 x   224 =    10781568
New grid distribution:   2
           1      48:   96    1:   45    1:  205
           2       1:   48    1:   45  206:  214
           3       1:   48   46:   90  215:  221
           4      49:   96    1:   45  236:  244
           5      49:   96    1:   45  245:  256
           6       1:   48    1:   44  257:  480
           7      49:   96   46:   90  236:  244
           8       1:   48   46:   90  229:  235
           9       1:   47    1:   45    1:  205
          10      49:   96   46:   90  206:  214
          11       1:   48    1:   45  229:  235
          12       1:   48    1:   45  236:  244
          13       1:   48    1:   45  245:  256
          14      49:   96    1:   44  257:  480
          15      49:   96    1:   45  206:  214
          16      49:   96    1:   45  229:  235
          17      48:   96   46:   90    1:  205
          18      49:   96   46:   90  215:  221
          19      49:   96   46:   90  229:  235
          20       1:   48   46:   90  236:  244
          21      49:   96   46:   90  245:  256
          22       1:   48   45:   90  257:  480
          23      49:   96    1:   45  215:  221
          24      49:   96    1:   45  222:  228
          25       1:   47   46:   90    1:  205
          26       1:   48    1:   45  222:  228
          27       1:   48   46:   90  222:  228
          28       1:   48   46:   90  206:  214
          29       1:   48   46:   90  245:  256
          30      49:   96   45:   90  257:  480
          31       1:   48    1:   45  215:  221
          32      49:   96   46:   90  222:  228
New grid distribution:   3
           1      49:   96    1:   45    1:  185
           2      49:   96   46:   90  254:  270
           3      49:   96    1:   45  186:  202
           4      49:   96    1:   45  237:  253
           5       1:   48    1:   45  254:  270
           6      46:   96    1:   42  288:  480
           7       1:   48    1:   45  271:  287
           8      49:   96   46:   90  220:  236
           9       1:   48    1:   45    1:  185
          10      49:   96    1:   45  271:  287
          11      49:   96    1:   45  220:  236
          12       1:   48    1:   45  203:  219
          13      49:   96    1:   45  254:  270
          14       1:   45    1:   37  288:  480
          15      49:   96    1:   45  203:  219
          16       1:   48   46:   90  237:  253
          17      49:   96   46:   90    1:  185
          18       1:   48   46:   90  271:  287
          19       1:   48    1:   45  237:  253
          20      49:   96   46:   90  186:  202
          21       1:   48   46:   90  254:  270
          22      46:   96   43:   90  288:  480
          23       1:   48   46:   90  186:  202
          24       1:   48    1:   45  220:  236
          25       1:   48   46:   90    1:  185
          26      49:   96   46:   90  271:  287
          27      49:   96   46:   90  203:  219
          28       1:   48   46:   90  203:  219
          29      49:   96   46:   90  237:  253
          30       1:   45   38:   90  288:  480
          31       1:   48    1:   45  186:  202
          32       1:   48   46:   90  220:  236
Setting up quadratic distribution...
ExtMesh (bp) on 0 =   205 x   213 x   369 =    16112385
PhiOnMesh: Number of (b)points on node 0 =               452025
PhiOnMesh: nlist on node 0 =              3614309

stepf: Fermi-Dirac step function

siesta: Program's energy decomposition (eV):
siesta: Ebs     =     -3486.241271
siesta: Eions   =     74448.861464
siesta: Ena     =      3164.659994
siesta: Ekin    =     44340.467594
siesta: Enl     =    -18464.472648
siesta: DEna    =         0.000048
siesta: DUscf   =         0.000000
siesta: DUext   =         0.000000
siesta: Exc     =    -46061.485270
siesta: eta*DQ  =         0.000000
siesta: Emadel  =         0.000000
siesta: Emeta   =         0.000000
siesta: Emolmec =         0.000000
siesta: Ekinion =         0.000000
siesta: Eharris =    -91685.670885
siesta: Etot    =    -91469.691747
siesta: FreeEng =    -91470.155370

   scf: iscf   Eharris(eV)      E_KS(eV)   FreeEng(eV)    dDmax  Ef(eV)
   scf:    1   -91685.6709   -91469.6917   -91470.1554  1.64157 -1.3754
timer: Routine,Calls,Time,% =    IterSCF     1       8.343  30.29
   scf:    2  -104978.0004   -90995.1639   -90995.3615192.93225-12.4510
   scf:    3   -91665.5681   -91475.6109   -91475.8577  1.38036 -1.9331
   scf:    4   -91646.6110   -91484.1495   -91484.4684  1.24572 -2.2923
   scf:    5   -91600.9836   -91510.8113   -91511.1335  0.74732 -3.5279
   scf:    6   -91581.4380   -91526.2735   -91526.5113  0.51489 -4.2320
   scf:    7   -91577.8450   -91532.7254   -91532.8864  0.55511 -4.4087
   scf:    8   -91577.0438   -91538.4880   -91538.6105  0.49636 -4.3231
   scf:    9   -91578.5278   -91550.3633   -91550.4907  0.28395 -3.6980
   scf:   10   -91578.3377   -91553.8549   -91553.9823  0.23262 -3.6539
   scf:   11   -91577.7596   -91562.5050   -91562.6026  0.12490 -3.6530
   scf:   12   -91577.5054   -91566.6517   -91566.7470  0.10197 -3.7094
   scf:   13   -91576.6099   -91568.5156   -91568.6280  0.07358 -4.0411
   scf:   14   -91576.6609   -91570.0988   -91570.2161  0.05995 -4.0819
   scf:   15   -91576.6130   -91574.0742   -91574.1895  0.04442 -4.0478
   scf:   16   -91576.5561   -91575.6138   -91575.7256  0.03826 -4.0066
   scf:   17   -91576.5272   -91575.8362   -91575.9451  0.03453 -3.9751
   scf:   18   -91576.5180   -91575.1086   -91575.2159  0.03165 -3.9638
   scf:   19   -91576.5080   -91574.5658   -91574.6733  0.02993 -3.9761
   scf:   20   -91576.4904   -91574.2976   -91574.4067  0.02844 -4.0097
   scf:   21   -91576.4884   -91574.4411   -91574.5511  0.02732 -4.0227
   scf:   22   -91576.4940   -91575.3935   -91575.5045  0.02360 -4.0304
   scf:   23   -91576.4921   -91575.7703   -91575.8810  0.02171 -4.0240
   scf:   24   -91576.4873   -91576.2068   -91576.3164  0.01818 -4.0052
   scf:   25   -91576.4869   -91576.2196   -91576.3289  0.01689 -4.0044
   scf:   26   -91576.4859   -91576.0541   -91576.1636  0.01475 -4.0143
   scf:   27   -91576.4837   -91575.9537   -91576.0634  0.01403 -4.0219
   scf:   28   -91576.4812   -91575.8620   -91575.9721  0.01319 -4.0302
   scf:   29   -91576.4810   -91575.8922   -91576.0023  0.01267 -4.0298
   scf:   30   -91576.4813   -91575.9889   -91576.0989  0.01200 -4.0262
   scf:   31   -91576.4815   -91576.1642   -91576.2740  0.01089 -4.0214
   scf:   32   -91576.4815   -91576.2947   -91576.4045  0.00982 -4.0210
   scf:   33   -91576.4812   -91576.3883   -91576.4983  0.00848 -4.0257
   scf:   34   -91576.4809   -91576.3924   -91576.5025  0.00781 -4.0291
   scf:   35   -91576.4804   -91576.3238   -91576.4340  0.00667 -4.0339
   scf:   36   -91576.4804   -91576.2882   -91576.3984  0.00622 -4.0335
   scf:   37   -91576.4805   -91576.2651   -91576.3751  0.00581 -4.0302
   scf:   38   -91576.4805   -91576.2747   -91576.3846  0.00561 -4.0289
   scf:   39   -91576.4805   -91576.3209   -91576.4308  0.00508 -4.0281
   scf:   40   -91576.4805   -91576.3506   -91576.4606  0.00471 -4.0292
   scf:   41   -91576.4803   -91576.3856   -91576.4957  0.00415 -4.0315
   scf:   42   -91576.4802   -91576.4028   -91576.5129  0.00366 -4.0329
   scf:   43   -91576.4803   -91576.4089   -91576.5190  0.00318 -4.0330
   scf:   44   -91576.4804   -91576.4024   -91576.5124  0.00293 -4.0316
   scf:   45   -91576.4804   -91576.3968   -91576.5067  0.00281 -4.0307
   scf:   46   -91576.4804   -91576.3918   -91576.5017  0.00265 -4.0303
   scf:   47   -91576.4804   -91576.3930   -91576.5029  0.00252 -4.0306
   scf:   48   -91576.4803   -91576.4023   -91576.5123  0.00225 -4.0319
   scf:   49   -91576.4803   -91576.4114   -91576.5214  0.00205 -4.0325
   scf:   50   -91576.4803   -91576.4337   -91576.5437  0.00161 -4.0327
   scf:   51   -91576.4803   -91576.4427   -91576.5527  0.00142 -4.0322
   scf:   52   -91576.4804   -91576.4484   -91576.5584  0.00127 -4.0312
   scf:   53   -91576.4804   -91576.4494   -91576.5593  0.00121 -4.0309
   scf:   54   -91576.4804   -91576.4496   -91576.5596  0.00113 -4.0311
   scf:   55   -91576.4803   -91576.4503   -91576.5603  0.00108 -4.0315
   scf:   56   -91576.4803   -91576.4520   -91576.5620  0.00101 -4.0319
   scf:   57   -91576.4803   -91576.4546   -91576.5646  0.00093 -4.0321
   scf:   58   -91576.4803   -91576.4579   -91576.5679  0.00084 -4.0320
   scf:   59   -91576.4803   -91576.4610   -91576.5710  0.00075 -4.0316
   scf:   60   -91576.4803   -91576.4637   -91576.5737  0.00067 -4.0314
   scf:   61   -91576.4803   -91576.4670   -91576.5770  0.00057 -4.0313
   scf:   62   -91576.4803   -91576.4688   -91576.5787  0.00051 -4.0315
   scf:   63   -91576.4803   -91576.4702   -91576.5802  0.00045 -4.0319
   scf:   64   -91576.4803   -91576.4707   -91576.5807  0.00043 -4.0320
   scf:   65   -91576.4803   -91576.4712   -91576.5812  0.00040 -4.0320
   scf:   66   -91576.4803   -91576.4715   -91576.5815  0.00038 -4.0319
   scf:   67   -91576.4803   -91576.4721   -91576.5821  0.00034 -4.0317
   scf:   68   -91576.4803   -91576.4728   -91576.5827  0.00031 -4.0317
   scf:   69   -91576.4803   -91576.4740   -91576.5840  0.00025 -4.0317
   scf:   70   -91576.4803   -91576.4748   -91576.5848  0.00022 -4.0319
   scf:   71   -91576.4803   -91576.4756   -91576.5856  0.00020 -4.0320
   scf:   72   -91576.4803   -91576.4760   -91576.5860  0.00018 -4.0320
   scf:   73   -91576.4803   -91576.4762   -91576.5862  0.00017 -4.0320
   scf:   74   -91576.4803   -91576.4763   -91576.5863  0.00017 -4.0319
   scf:   75   -91576.4803   -91576.4765   -91576.5865  0.00016 -4.0319
   scf:   76   -91576.4803   -91576.4768   -91576.5868  0.00014 -4.0319
   scf:   77   -91576.4803   -91576.4771   -91576.5871  0.00013 -4.0319
   scf:   78   -91576.4803   -91576.4777   -91576.5877  0.00010 -4.0320
   scf:   79   -91576.4803   -91576.4781   -91576.5881  0.00009 -4.0320

SCF Convergence by dMax criterion
max |DM_out - DM_in|:     0.00008987
SCF cycle converged after   79 iterations

Using DM_out to compute the final energy and forces

siesta: E_KS(eV) =           -91576.4803

siesta: E_KS - E_eggbox =    -91576.4803

siesta: Atomic forces (eV/Ang):
     1   -0.121983   -0.136983    0.004721
     2   -0.008432   -0.170969   -0.067384
     3   -0.021305   -0.172691   -0.077026
     4    0.124524   -0.174995   -0.064555
     5   -0.131440    0.013708   -0.124998
     6    0.023463    0.011059   -0.151472
     7    0.012291    0.023526   -0.145830
     8    0.131784    0.019254   -0.060658
     9   -0.141668   -0.010929   -0.086688
    10   -0.011388   -0.015234   -0.158672
    11   -0.014767   -0.019054   -0.147288
    12    0.129758   -0.015785   -0.126331
    13   -0.125317    0.156423   -0.110483
    14    0.018680    0.160767   -0.096526
    15    0.015479    0.162062   -0.130655
    16    0.115828    0.124165   -0.050433
    17   -0.153049   -0.174812    0.216575
    18    0.022089   -0.175055    0.219737
    19    0.019423   -0.174187    0.238402
    20    0.161924   -0.132833    0.253707
    21   -0.185524    0.007610    0.178351
    22   -0.015685    0.025559    0.161773
    23   -0.017187    0.016130    0.178938
    24    0.153638    0.015547    0.170202
    25   -0.148903   -0.025193    0.168821
    26    0.017493   -0.005596    0.176589
    27    0.018907   -0.014769    0.187353
    28    0.170627   -0.004129    0.200972
    29   -0.172718    0.144248    0.149722
    30    0.003758    0.193957    0.119563
    31   -0.025713    0.187344    0.116216
    32    0.146314    0.173940    0.149345
    33   -0.147680   -0.100491    0.111364
    34   -0.015725   -0.121637    0.205388
    35   -0.021680   -0.141412    0.198187
    36    0.118880   -0.142048    0.163224
    37   -0.145493    0.029124    0.247666
    38    0.030074    0.026256    0.221726
    39    0.010062    0.029946    0.192285
    40    0.166634    0.044251    0.159912
    41   -0.188266    0.003631    0.182912
    42   -0.011579    0.006518    0.222892
    43   -0.014084    0.014917    0.212124
    44    0.136406    0.019077    0.201124
    45   -0.145417    0.162469    0.162054
    46    0.021300    0.163475    0.169614
    47   -0.001919    0.174205    0.180796
    48    0.171045    0.147833    0.221013
    49   -0.061052   -0.115691   -0.367454
    50   -0.108434   -0.099818   -0.235835
    51    0.004236   -0.154741   -0.295108
    52    0.125891   -0.145216   -0.365421
    53   -0.091097   -0.173578   -0.166770
    54   -0.012252   -0.034680   -0.209896
    55    0.019119    0.002398   -0.271504
    56    0.091615   -0.047426   -0.326317
    57   -0.089331    0.012141   -0.306034
    58   -0.022792   -0.035985   -0.241728
    59   -0.008474   -0.021956   -0.246924
    60    0.128986   -0.008018   -0.298649
    61   -0.088655    0.107124   -0.283229
    62   -0.000691    0.098554   -0.297003
    63    0.028914    0.131606   -0.249982
    64    0.119274    0.134232   -0.393353
    65    2.964965  -14.376519    0.048333
    66    8.155510    9.674887    3.443563
    67  -11.117640    4.727363   -3.279653
----------------------------------------
   Tot   -0.008448    0.002878    0.001303
----------------------------------------
   Max   14.376519
   Res    1.651546    sqrt( Sum f_i^2 / 3N )
----------------------------------------
   Max   14.376519    constrained

Stress-tensor-Voigt (kbar):       11.57       14.96        1.95       -0.31       -0.09       -0.94
(Free)E + p*V (eV/cell)   -91618.7854
Target enthalpy (eV/cell)   -91576.5903

siesta: Eigenvalues (eV):
  ik is    eps
   1  1 -27.55 -14.90 -12.72 -11.62 -11.51 -11.42 -11.18 -11.12 -10.81 -10.69
        -10.49 -10.45 -10.42 -10.41 -10.39 -10.38 -10.37 -10.34 -10.30 -10.29
        -10.27 -10.26 -10.26 -10.24  -9.99  -9.91  -9.90  -9.89  -9.85  -9.82
         -9.80  -9.79  -9.78  -9.77  -9.77  -9.77  -9.74  -9.74  -9.72  -9.69
         -9.67  -9.67  -9.66  -9.65  -9.65  -9.63  -9.60  -9.57  -9.57  -9.56
         -9.54  -9.53  -9.53  -9.52  -9.51  -9.50  -9.49  -9.45  -9.36  -9.34
         -9.33  -9.32  -9.30  -9.29  -9.28  -9.22  -9.19  -9.18  -9.17  -9.15
         -9.11  -9.10  -9.05  -9.04  -9.03  -8.99  -8.99  -8.98  -8.97  -8.96
         -8.95  -8.93  -8.91  -8.89  -8.86  -8.84  -8.84  -8.83  -8.82  -8.81
         -8.79  -8.78  -8.76  -8.75  -8.74  -8.73  -8.71  -8.70  -8.69  -8.66
         -8.66  -8.65  -8.65  -8.63  -8.63  -8.62  -8.61  -8.61  -8.60  -8.59
         -8.58  -8.57  -8.56  -8.55  -8.54  -8.51  -8.50  -8.48  -8.46  -8.46
         -8.46  -8.44  -8.42  -8.41  -8.40  -8.40  -8.39  -8.38  -8.37  -8.36
         -8.35  -8.34  -8.33  -8.32  -8.31  -8.30  -8.25  -8.24  -8.22  -8.20
         -8.19  -8.18  -8.17  -8.17  -8.15  -8.15  -8.14  -8.12  -8.12  -8.11
         -8.10  -8.09  -8.08  -8.07  -8.07  -8.06  -8.05  -8.04  -8.03  -8.00
         -7.99  -7.98  -7.98  -7.95  -7.95  -7.94  -7.94  -7.93  -7.92  -7.91
         -7.90  -7.89  -7.88  -7.87  -7.87  -7.86  -7.85  -7.84  -7.83  -7.82
         -7.82  -7.81  -7.79  -7.77  -7.75  -7.73  -7.72  -7.71  -7.70  -7.68
         -7.68  -7.66  -7.63  -7.62  -7.61  -7.60  -7.57  -7.56  -7.56  -7.54
         -7.52  -7.52  -7.51  -7.50  -7.50  -7.49  -7.48  -7.46  -7.45  -7.43
         -7.41  -7.40  -7.40  -7.39  -7.38  -7.36  -7.36  -7.36  -7.35  -7.34
         -7.32  -7.31  -7.31  -7.31  -7.29  -7.28  -7.28  -7.27  -7.26  -7.25
         -7.24  -7.22  -7.20  -7.19  -7.18  -7.16  -7.16  -7.14  -7.13  -7.13
         -7.12  -7.11  -7.11  -7.10  -7.09  -7.07  -7.04  -7.03  -7.02  -7.01
         -7.00  -6.97  -6.96  -6.94  -6.93  -6.93  -6.92  -6.92  -6.90  -6.89
         -6.89  -6.87  -6.84  -6.82  -6.81  -6.79  -6.78  -6.78  -6.77  -6.75
         -6.75  -6.73  -6.71  -6.70  -6.65  -6.63  -6.60  -6.59  -6.59  -6.58
         -6.57  -6.57  -6.55  -6.53  -6.53  -6.53  -6.51  -6.50  -6.49  -6.49
         -6.47  -6.46  -6.46  -6.44  -6.43  -6.43  -6.43  -6.42  -6.42  -6.41
         -6.41  -6.40  -6.38  -6.37  -6.36  -6.36  -6.35  -6.35  -6.34  -6.33
         -6.33  -6.32  -6.32  -6.31  -6.30  -6.26  -6.25  -6.24  -6.24  -6.24
         -6.23  -6.23  -6.21  -6.19  -6.13  -6.13  -6.12  -6.11  -6.10  -6.07
         -6.07  -6.07  -6.07  -5.92  -5.91  -5.90  -5.90  -5.88  -5.87  -5.86
         -5.84  -5.83  -5.82  -5.81  -5.78  -5.69  -5.67  -5.24  -4.89  -4.86
         -4.83  -4.81  -4.48  -4.46  -4.18  -4.15  -3.89  -3.87  -3.83  -3.82
         -3.77  -3.76  -3.71  -3.46  -3.25  -3.23  -3.21  -3.03  -3.00  -2.99
         -2.96  -2.84  -2.78  -2.76  -2.75  -2.72  -2.55  -2.42  -2.40  -2.14
         -2.13  -2.11  -2.08  -1.33  -1.33  -1.26  -1.25  -1.19  -1.16  -1.12
         -1.03  -1.01  -1.00  -0.95  -0.80  -0.79  -0.77  -0.48  -0.41  -0.11
         -0.06   0.33   0.39   0.44   0.77   0.84   0.92   0.98   0.99   1.02
          1.06   1.20   1.24   1.26   1.48   1.50   1.59   1.66   1.85   1.88
          1.91   1.92   1.99   2.05   2.25   2.30   2.73   2.76   2.89   2.90
          2.97   3.00   3.04   3.09   3.44   3.52   3.58   3.67   3.80   3.82
          3.84   3.86   3.89   3.91   4.64   4.72   4.75   4.78   4.80   4.87
          4.94   4.94   4.98   4.99   5.01   5.13   5.25   5.32   5.69   5.79
          5.81   5.85   5.90   5.94   6.00   6.12   6.14   6.21   6.24   6.24
          6.27   6.39   6.43   6.48   6.50   6.51   6.58   6.72   6.77   6.82
          6.90   7.00   7.52   7.57   7.61   7.65   7.69   7.70   7.71   7.74
          7.76   7.80   7.82   7.88   7.98   8.07   8.30   8.48   8.57   8.63
          8.69   8.73   8.77   8.81   8.82   8.93   8.95   8.95   9.20   9.27
          9.33   9.37   9.56   9.64   9.71   9.78   9.82   9.88   9.91  10.47
         10.52  10.55  10.60  10.61  10.63  10.64  10.67  10.69  10.70  10.73
         10.74  10.76  10.77  10.87  10.94  11.21  11.28  11.36  11.56  11.58
         11.61  11.74  11.75  11.81  11.84  11.84  11.90  11.95  12.01  12.11
         12.45  12.49  12.52  12.54  12.56  12.61  12.64  12.66  12.78  12.96
         13.01  13.04  13.08  13.26  13.31  13.36  13.45  13.57  13.66  13.74
         13.78  14.36  14.65  14.67  14.69  14.75  14.82  14.86  14.90  14.99
         15.01  15.11  15.15  15.22  15.24  15.35  15.35  15.46  15.53  15.70
         15.88  16.02  16.08  16.24  16.28  16.47  16.52  16.55  16.57  16.62
         16.81  16.82  16.95  17.05  17.13  17.20  17.25  17.39  17.46  17.49
         17.67  17.89  17.91  18.10  18.14  18.27  18.36  18.46  18.48  18.51
         18.67  19.01  19.13  19.16  19.19  19.27  19.31  19.43  19.48  19.53
         19.80  19.93  19.96  20.00  20.05  20.08  20.18  20.25  20.39  20.61
         20.73  20.83  20.87  21.02  21.08  21.32  21.36  21.41  21.46  21.57
         21.81  21.96  21.96  22.06  22.12  22.14  22.16  22.20  22.24  22.41
         22.46  22.54  22.55  22.63  22.66  22.86  22.99  23.08  23.11  23.31
         23.37  23.47  23.74  23.79  23.80  23.95  23.97  23.99  24.01  24.05
         24.10  24.15  24.20  24.25  24.36  24.38  24.63  24.84  24.91  25.00
         25.02  25.07  25.11  25.20  25.23  25.26  25.36  25.37  25.46  25.67
         25.75  25.89  25.95  26.01  26.02  26.08  26.10  26.19  26.24  26.27
         26.35  26.37  26.40  26.45  26.50  26.53  26.59  26.64  26.70  26.72
         26.81  26.90  26.92  26.96  26.99  27.07  27.17  27.26  27.35  27.43
         27.47  27.53  27.61  27.69  27.73  27.76  27.84  27.95  28.01  28.13
         28.16  28.25  28.31  28.38  28.40  28.46  28.57  28.59  28.72  28.76
         28.84  28.85  28.95  29.02  29.05  29.08  29.15  29.15  29.25  29.32
         29.36  29.39  29.43  29.55  29.66  29.77  29.84  30.00  30.09  30.19
         30.29  30.32  30.37  30.40  30.46  30.53  30.64  30.68  30.73  30.79
         30.82  30.85  30.95  30.96  31.03  31.06  31.14  31.21  31.24  31.47
         31.56  31.62  31.67  31.78  31.93  31.95  32.03  32.08  32.11  32.22
         32.25  32.32  32.38  32.41  32.43  32.50  32.53  32.54  32.60  32.64
         32.69  32.72  32.74  32.82  32.85  33.04  33.10  33.13  33.19  33.20
         33.30  33.33  33.40  33.45  33.47  33.57  33.63  33.67  33.70  33.77
         33.81  33.87  33.95  34.14  34.22  34.27  34.30  34.39  34.44  34.48
         34.52  34.66  34.79  34.96  35.07  35.10  35.21  35.23  35.32  35.33
         35.43  35.58  35.61  35.70  35.73  35.78  35.82  35.87  35.97  36.02
         36.27  36.30  36.39  36.55  36.75  36.85  36.93  37.07  37.12  37.19
         37.33  37.44  37.48  37.63  37.64  37.75  37.81  37.86  38.01  38.10
         38.18  38.30  38.38  38.43  38.54  38.57  38.61  38.73  38.95  39.33
         39.36  39.61  39.81  40.02  40.08  40.19  40.30  40.34  40.38  40.40
         40.49  40.51  40.62  40.67  40.73  40.81  40.87  40.92  41.06  41.10
         41.15  41.36  41.42  41.64  41.72  41.80  41.86  41.98  42.06  42.23
         42.43  42.46  42.51  42.70  42.76  42.79  42.85  42.92  42.95  43.00
         43.18  43.36  43.61  43.68  43.71  43.76  43.82  43.85  43.94  44.05
         44.17  44.28  44.44  44.56  44.79  45.06  45.14  45.50  45.58  45.80
         45.85  45.97  46.04  46.07  46.33  46.39  46.58  46.65  46.67  46.96
         47.55  47.65  47.74  47.86  47.93  47.97  48.26  48.27  48.35  48.69
         48.76  49.08  49.72  49.83  50.30  50.34  50.71  55.62  61.40  61.93
         63.47  68.39  79.56
siesta: Fermi energy =      -4.031983 eV

siesta: Program's energy decomposition (eV):
siesta: Ebs     =     -5648.555636
siesta: Eions   =     74448.861464
siesta: Ena     =      3164.659994
siesta: Ekin    =     41816.024406
siesta: Enl     =    -17213.346178
siesta: DEna    =       601.088115
siesta: DUscf   =        55.460672
siesta: DUext   =         0.000000
siesta: Exc     =    -45551.505855
siesta: eta*DQ  =         0.000000
siesta: Emadel  =         0.000000
siesta: Emeta   =         0.000000
siesta: Emolmec =         0.000000
siesta: Ekinion =         0.000000
siesta: Eharris =    -91576.480311
siesta: Etot    =    -91576.480311
siesta: FreeEng =    -91576.590305

siesta: Final energy (eV):
siesta:  Band Struct. =   -5648.555636
siesta:       Kinetic =   41816.024406
siesta:       Hartree = 1196366.214944
siesta:    Ext. field =       0.000000
siesta:   Exch.-corr. =  -45551.505855
siesta:  Ion-electron =-2425188.526882
siesta:       Ion-ion = 1140981.313077
siesta:       Ekinion =       0.000000
siesta:         Total =  -91576.480311

siesta: Atomic forces (eV/Ang):
siesta:      1   -0.121983   -0.136983    0.004721
siesta:      2   -0.008432   -0.170969   -0.067384
siesta:      3   -0.021305   -0.172691   -0.077026
siesta:      4    0.124524   -0.174995   -0.064555
siesta:      5   -0.131440    0.013708   -0.124998
siesta:      6    0.023463    0.011059   -0.151472
siesta:      7    0.012291    0.023526   -0.145830
siesta:      8    0.131784    0.019254   -0.060658
siesta:      9   -0.141668   -0.010929   -0.086688
siesta:     10   -0.011388   -0.015234   -0.158672
siesta:     11   -0.014767   -0.019054   -0.147288
siesta:     12    0.129758   -0.015785   -0.126331
siesta:     13   -0.125317    0.156423   -0.110483
siesta:     14    0.018680    0.160767   -0.096526
siesta:     15    0.015479    0.162062   -0.130655
siesta:     16    0.115828    0.124165   -0.050433
siesta:     17   -0.153049   -0.174812    0.216575
siesta:     18    0.022089   -0.175055    0.219737
siesta:     19    0.019423   -0.174187    0.238402
siesta:     20    0.161924   -0.132833    0.253707
siesta:     21   -0.185524    0.007610    0.178351
siesta:     22   -0.015685    0.025559    0.161773
siesta:     23   -0.017187    0.016130    0.178938
siesta:     24    0.153638    0.015547    0.170202
siesta:     25   -0.148903   -0.025193    0.168821
siesta:     26    0.017493   -0.005596    0.176589
siesta:     27    0.018907   -0.014769    0.187353
siesta:     28    0.170627   -0.004129    0.200972
siesta:     29   -0.172718    0.144248    0.149722
siesta:     30    0.003758    0.193957    0.119563
siesta:     31   -0.025713    0.187344    0.116216
siesta:     32    0.146314    0.173940    0.149345
siesta:     33   -0.147680   -0.100491    0.111364
siesta:     34   -0.015725   -0.121637    0.205388
siesta:     35   -0.021680   -0.141412    0.198187
siesta:     36    0.118880   -0.142048    0.163224
siesta:     37   -0.145493    0.029124    0.247666
siesta:     38    0.030074    0.026256    0.221726
siesta:     39    0.010062    0.029946    0.192285
siesta:     40    0.166634    0.044251    0.159912
siesta:     41   -0.188266    0.003631    0.182912
siesta:     42   -0.011579    0.006518    0.222892
siesta:     43   -0.014084    0.014917    0.212124
siesta:     44    0.136406    0.019077    0.201124
siesta:     45   -0.145417    0.162469    0.162054
siesta:     46    0.021300    0.163475    0.169614
siesta:     47   -0.001919    0.174205    0.180796
siesta:     48    0.171045    0.147833    0.221013
siesta:     49   -0.061052   -0.115691   -0.367454
siesta:     50   -0.108434   -0.099818   -0.235835
siesta:     51    0.004236   -0.154741   -0.295108
siesta:     52    0.125891   -0.145216   -0.365421
siesta:     53   -0.091097   -0.173578   -0.166770
siesta:     54   -0.012252   -0.034680   -0.209896
siesta:     55    0.019119    0.002398   -0.271504
siesta:     56    0.091615   -0.047426   -0.326317
siesta:     57   -0.089331    0.012141   -0.306034
siesta:     58   -0.022792   -0.035985   -0.241728
siesta:     59   -0.008474   -0.021956   -0.246924
siesta:     60    0.128986   -0.008018   -0.298649
siesta:     61   -0.088655    0.107124   -0.283229
siesta:     62   -0.000691    0.098554   -0.297003
siesta:     63    0.028914    0.131606   -0.249982
siesta:     64    0.119274    0.134232   -0.393353
siesta:     65    2.964965  -14.376519    0.048333
siesta:     66    8.155510    9.674887    3.443563
siesta:     67  -11.117640    4.727363   -3.279653
siesta: ----------------------------------------
siesta:    Tot   -0.008448    0.002878    0.001303

siesta: Stress tensor (static) (eV/Ang**3):
siesta:     0.007220   -0.000196   -0.000588
siesta:    -0.000196    0.009337   -0.000054
siesta:    -0.000588   -0.000054    0.001220

siesta: Cell volume =       7121.044177 Ang**3

siesta: Pressure (static):
siesta:                Solid            Molecule  Units
siesta:          -0.00006454         -0.00008971  Ry/Bohr**3
siesta:          -0.00592542         -0.00823708  eV/Ang**3
siesta:          -9.49366448        -13.19740481  kBar
(Free)E+ p_basis*V_orbitals  =      -91503.913109
(Free)Eharris+ p_basis*V_orbitals  =      -91503.913110

siesta: Electric dipole (a.u.)  =    0.000000   -0.000000    1.390340
siesta: Electric dipole (Debye) =    0.000000   -0.000000    3.533894
>> End of run:  10-APR-2024   3:30:22
Job completed
