SystemName     geometry-23                                                                     
SystemLabel     geometry-23                                                                     
XML.Write              T     # default value
XML.AbortOnErrors              F     # default value
XML.AbortOnWarnings              F     # default value
timer_report_threshold          0.000000000         # default value
UseTreeTimer              F     # default value
alloc_report_level         0     # default value
alloc_report_threshold          0.000000000         # default value
xc.functional     GGA                                                                             
xc.authors     PBE                                                                             
MM.Cutoff          30.00000000     Bohr     # default value
MM.UnitsEnergy     eV     # default value
MM.UnitsDistance     Ang     # default value
WriteIonPlotFiles              F     # default value
Atom.Debug.KB.Generation              F     # default value
KB.New.Reference.Orbitals              F     # default value
user-basis              F     # default value
user-basis-netcdf              F     # default value
ReparametrizePseudos              F     # default value
Restricted.Radial.Grid              T     # default value
Rmax.Radial.Grid          0.000000000         # default value
PAO.BasisSize     standard            # default value
PAO.BasisType     split          # default value
PAO.SoftDefault              F     # default value
PAO.SoftInnerRadius         0.9000000000         # default value
PAO.SoftPotential          40.00000000         # default value
PAO.SplitNorm         0.1500000000         # default value
PAO.SplitNormH         -1.000000000         # default value
Number_of_species              5
%block Chemical_species_label
     1 1 H.1
     2 8 O.2
     3 79 Au.gga.3
     4 79 Au.gga.4
     5 79 Au.gga.5
%endblock Chemical_species_label
%block PAO.BasisSizes
     Au.gga.3	DZP
%endblock PAO.BasisSizes
%block PAO.Basis
 H.1 2 0.46527
             n=1 0 2 E 99.93138 2.59932
             4.20357 1.84463
             n=2 1 1 E 24.56504 2.20231
 (Backspace to) |            n=2 1 1 E 24.56504 2.20231|
             n=2 1 1 E 24.56504 2.20231
             3.52816
 O.2 3 -0.24233
 (Backspace to) |O.2 3 -0.24233|
 O.2 3 -0.24233
             n=2 0 2 E 23.36061 3.39721
             4.50769 2.64066
             n=2 1 2 E 2.78334 5.14253
 (Backspace to) |            n=2 1 2 E 2.78334 5.14253|
             n=2 1 2 E 2.78334 5.14253
             6.14996 2.59356
             n=3 2 1 E 63.98188 0.16104
 (Backspace to) |            n=3 2 1 E 63.98188 0.16104|
             n=3 2 1 E 63.98188 0.16104
             3.54403
 Au.gga.4 2
 (Backspace to) |Au.gga.4 2|
 Au.gga.4 2
             n=6 0 2 P 1
             7.24700 5.71500
             n=5 2 2
 (Backspace to) |            n=5 2 2|
             n=5 2 2
             5.10700 2.83800
 Au.gga.5 2
 (Backspace to) |Au.gga.5 2|
 Au.gga.5 2
             n=6 0 2 P 1
             9.07500 5.78700
             n=5 2 2
 (Backspace to) |            n=5 2 2|
             n=5 2 2
             6.55700 2.87400
%endblock PAO.Basis
%endblock PAO.Basis
FilterCutoff          0.000000000     Ry     # default value
FilterTol          0.000000000     Ry     # default value
KB.Rmax          6.000000000     Bohr     # default value
PAO.EnergyShift         0.7349798845E-02         Ry
# above item originally: PAO.EnergyShift         0.1000000000     eV        
PAO.SplitTailNorm              F     # default value
PAO.FixSplitTable              F     # default value
PAO.NewSplitCode              F     # default value
PAO.Filter              F     # default value
PAO.Filter              F     # default value
PAO.Filter              F     # default value
PAO.OldStylePolorbs              T     # default value
PAO.SplitTailNorm              F     # default value
PAO.FixSplitTable              F     # default value
PAO.NewSplitCode              F     # default value
Vna.Filter              F     # default value
FilterCutoff          0.000000000     Ry     # default value
FilterTol          0.000000000     Ry     # default value
KB.Rmax          6.000000000     Bohr     # default value
PAO.EnergyShift         0.7349798845E-02         Ry
# above item originally: PAO.EnergyShift         0.1000000000     eV        
PAO.SplitTailNorm              F     # default value
PAO.FixSplitTable              F     # default value
PAO.NewSplitCode              F     # default value
PAO.Filter              F     # default value
PAO.Filter              F     # default value
PAO.Filter              F     # default value
PAO.Filter              F     # default value
PAO.Filter              F     # default value
PAO.OldStylePolorbs              T     # default value
PAO.SplitTailNorm              F     # default value
PAO.FixSplitTable              F     # default value
PAO.NewSplitCode              F     # default value
Vna.Filter              F     # default value
PCC.Filter              F     # default value
FilterCutoff          0.000000000     Ry     # default value
FilterTol          0.000000000     Ry     # default value
KB.Rmax          6.000000000     Bohr     # default value
PAO.EnergyShift         0.7349798845E-02         Ry
# above item originally: PAO.EnergyShift         0.1000000000     eV        
PAO.SplitTailNorm              F     # default value
PAO.FixSplitTable              F     # default value
PAO.NewSplitCode              F     # default value
PAO.Filter              F     # default value
PAO.Keep.Findp.Bug              F     # default value
PAO.Filter              F     # default value
PAO.Filter              F     # default value
PAO.Filter              F     # default value
PAO.OldStylePolorbs              T     # default value
PAO.SplitTailNorm              F     # default value
PAO.FixSplitTable              F     # default value
PAO.NewSplitCode              F     # default value
PAO.Filter              F     # default value
Vna.Filter              F     # default value
PCC.Filter              F     # default value
FilterCutoff          0.000000000     Ry     # default value
FilterTol          0.000000000     Ry     # default value
KB.Rmax          6.000000000     Bohr     # default value
PAO.EnergyShift         0.7349798845E-02         Ry
# above item originally: PAO.EnergyShift         0.1000000000     eV        
PAO.SplitTailNorm              F     # default value
PAO.FixSplitTable              F     # default value
PAO.NewSplitCode              F     # default value
PAO.Filter              F     # default value
PAO.Filter              F     # default value
PAO.Filter              F     # default value
PAO.Filter              F     # default value
PAO.OldStylePolorbs              T     # default value
PAO.SplitTailNorm              F     # default value
PAO.FixSplitTable              F     # default value
PAO.NewSplitCode              F     # default value
PAO.Filter              F     # default value
Vna.Filter              F     # default value
PCC.Filter              F     # default value
FilterCutoff          0.000000000     Ry     # default value
FilterTol          0.000000000     Ry     # default value
KB.Rmax          6.000000000     Bohr     # default value
PAO.EnergyShift         0.7349798845E-02         Ry
# above item originally: PAO.EnergyShift         0.1000000000     eV        
PAO.SplitTailNorm              F     # default value
PAO.FixSplitTable              F     # default value
PAO.NewSplitCode              F     # default value
PAO.Filter              F     # default value
PAO.Filter              F     # default value
PAO.Filter              F     # default value
PAO.Filter              F     # default value
PAO.OldStylePolorbs              T     # default value
PAO.SplitTailNorm              F     # default value
PAO.FixSplitTable              F     # default value
PAO.NewSplitCode              F     # default value
PAO.Filter              F     # default value
Vna.Filter              F     # default value
PCC.Filter              F     # default value
PAO.BasisType     split          # default value
Atom-Setup-Only              F     # default value
UseStructFile              F     # default value
MD.UseStructFile              F     # default value
LatticeConstant          1.889726878           Bohr
# above item originally: LatticeConstant          1.000000000     Ang       
%block LatticeVectors
     11.975725345373620     0.000000000000000     0.000000000000000
     0.000000000000000     10.371282377926580     0.000000000000000
     0.000000000000000     0.000000000000000     57.333623994331909
AtomicCoordinatesFormat     Ang                                                                             
NumberOfAtoms             67
ZM.UnitsLength     Bohr           # default value
ZM.UnitsAngle     rad            # default value
ZM.ForceTolLength         0.1555740000E-02 Ry/Bohr     # default value
ZM.ForceTolAngle         0.3565490000E-02 Ry/rad     # default value
ZM.MaxDisplLength         0.2000000000     Bohr     # default value
ZM.MaxDisplAngle         0.3000000000E-02 rad     # default value
ZM.CalcAllForces              F     # default value
%block AtomicCoordinatesAndAtomicSpecies
      0.000733230     -0.074594943     24.821904941 5
      2.966848391     -0.088918857     24.832011260 5
      5.927920802     -0.098318236     24.868498434 5
      8.910873407     -0.077103645     24.888884201 5
      1.491438635      2.478463866     24.792170464 5
      4.446104585      2.480778589     24.836154757 5
      7.424011136      2.487840904     24.888549725 5
     10.391187827      2.480254268     24.823555103 5
      0.005172882      5.048692922     24.869968867 5
      2.966748483      5.060897544     24.818842471 5
      5.935284192      5.058605609     24.845871755 5
      8.901826681      5.052222005     24.953262607 5
      1.509700318      7.636093696     24.895316708 5
      4.451264812      7.637759740     24.816845794 5
      7.395067965      7.637215947     24.966621528 5
     10.381222268      7.633725071     24.932322522 5
      1.494659669      0.804498967     27.396014556 5
      4.439350362      0.806958975     27.407844854 5
      7.400667352      0.816897565     27.415309152 5
     10.376639197      0.828875805     27.397073789 5
     -0.004700484      3.359172215     27.358009122 5
      2.955018191      3.375250377     27.349256597 5
      5.925488364      3.375668698     27.375400962 5
      8.889292646      3.381246843     27.477779076 5
      1.491086467      5.943316117     27.386766418 5
      4.434530464      5.980460914     27.342022699 5
      7.408973624      5.958093555     27.452190484 5
     10.384087248      5.935082686     27.436049965 5
      0.041857680      8.546583831     27.352939705 5
      2.946682693      8.551169532     27.456272684 5
      5.888999458      8.541603850     27.481421430 5
      8.899340021      8.533896341     27.428185203 5
     -0.013567262      1.707424045     29.856238741 3
      2.935407576      1.710182770     29.896445165 3
      5.934765426      1.700755355     29.860619225 3
      8.917676089      1.675388267     29.939632146 3
      1.456056669      4.279140292     29.837029726 3
      4.435269438      4.296039541     29.778636382 3
      7.391538032      4.258650862     29.939629431 3
     10.365502893      4.241049705     29.931506838 3
     -0.024582798      6.842176691     29.819731817 3
      2.976605306      6.852281536     29.854827491 3
      5.934462134      6.825609539     29.904656044 3
      8.891902527      6.807536476     29.927810458 3
      1.434453587      9.435869440     29.991330107 3
      4.415854273      9.450582595     29.952911137 3
      7.447976403      9.391225199     29.898208430 3
     10.391158935      9.383268653     29.801179030 3
     -0.247792373     -0.037079740     32.319783875 3
      3.172888303      0.057979471     32.544830273 3
      5.998222546      0.026521546     32.446949072 3
      8.755867157      0.060085849     32.704743735 3
      1.461462751      2.902405883     32.300321477 3
      4.497156391      2.695986679     32.335389737 3
      7.395966053      2.633391963     32.548468200 3
     10.274773870      2.617894587     32.811503475 3
     -0.152669945      5.222644558     32.463494043 3
      3.021168880      5.317262185     32.453396730 3
      5.935416447      5.225497839     32.573427552 3
      8.824944652      5.149518785     32.673412050 3
      1.396859167      7.751919646     32.403084314 3
      4.428824973      7.792485157     32.529949647 3
      7.407431627      7.753329436     32.584385591 3
     10.299775294      7.695007581     32.607426913 3
      1.734946094      1.257058321     33.857990131 2
      2.071857020      1.574217308     34.678706585 1
     -0.780861258      1.170034961     33.585479521 1
UseSaveData              F
MD.UseSaveXV              F
MD.UseSaveZM              F     # default value
WriteCoorInitial              T     # default value
MD.TypeOfRun     CG                                                                              
MaxBondDistance          6.000000000     Bohr     # default value
Output-Structure-Only              F     # default value
WriteCoorXmol              F
#:physical? MaxWalltime              F
MaxWalltime         0.1797693135+309     # default value
#:physical? MaxWalltime.Slack              F
MaxWalltime.Slack          5.000000000         # default value
SpinPolarized              F     # default value
NonCollinearSpin              F     # default value
HSetupOnly              F     # default value
LongOutput              F     # default value
WriteDenchar              F     # default value
WriteMullikenPop              0
WriteHirshfeldPop              F
WriteVoronoiPop              F
PartialChargesAtEveryGeometry              F     # default value
PartialChargesAtEveryScfStep              F     # default value
MeshCutoff          699.9937475             Ry
# above item originally: MeshCutoff          9523.985109     eV        
NetCharge          0.000000000         # default value
MinSCFIterations              0
MaxSCFIterations            500
SCFMustConverge              T
MixHamiltonian              F     # default value
TS.MixH              F     # default value
MixCharge              F     # default value
Compat-pre-v4-DM-H              F     # default value
SCF.MixAfterConvergence              F     # default value
SCF.Recompute-H-After-Scf              F     # default value
DM.NumberPulay              3
DM.NumberBroyden         0     # default value
DM.FIRE.Mixing              F     # default value
DM.MixSCF1              F     # default value
DM.PulayOnFile              F     # default value
DM.Pulay.Avoid.First.After.Kick              F     # default value
DM.MixingWeight         0.3000000000E-01
DM.OccupancyTolerance         0.1000000000E-11     # default value
DM.NumberKick         0     # default value
DM.KickMixingWeight         0.5000000000         # default value
DM.Tolerance         0.1000000000E-03
DM.RequireEnergyConvergence              F     # default value
DM.EnergyTolerance         0.7349806700E-06 Ry     # default value
DM.RequireHarrisConvergence              F     # default value
DM.HarrisTolerance         0.7349806700E-06 Ry     # default value
MonitorForcesInSCF              F     # default value
UseSaveData              F
DM.UseSaveDM              F
NeglNonOverlapInt              F     # default value
SolutionMethod     diagon                                                                          
Diag.DivideAndConquer              T     # default value
Diag.Memory          1.000000000         # default value
ElectronicTemperature         0.3674899422E-02         Ry
# above item originally: ElectronicTemperature          50.00000000     meV       
FixSpin              F     # default value
ON.MaxNumIter      1000     # default value
ON.etol         0.1000000000E-07     # default value
ON.eta          0.000000000     Ry     # default value
ON.eta_alpha          0.000000000     Ry     # default value
ON.eta_beta          0.000000000     Ry     # default value
On.RcLWF          9.500000000     Bohr     # default value
ON.UseSaveLWF              F     # default value
ON.functional     kim     # default value
ON.ChemicalPotentialUse              F     # default value
ON.ChemicalPotential              F     # default value
ON.ChemicalPotentialRc          9.500000000     Bohr     # default value
ON.ChemicalPotentialTemperature         0.5000000000E-01 Ry     # default value
ON.ChemicalPotentialOrder       100     # default value
MD.VariableCell              F     # default value
compat-pre-v4-dynamics              F     # default value
MD.TypeOfRun     CG                                                                              
MD.UseSaveCG              F     # default value
Optim.Broyden              F     # default value
MD.NumCGsteps         0     # default value
MD.MaxCGDispl         0.2000000000     Bohr     # default value
MD.MaxForceTol         0.1555739508E-02    Ry/Bohr
# above item originally: MD.MaxForceTol         0.4000000000E-01 eV/Ang    
MD.MaxStressTol         0.6797730000E-04 Ry/Bohr**3     # default value
GeometryMustConverge              F     # default value
MD.InitialTimeStep         1     # default value
MD.FinalTimeStep         1     # default value
MD.LengthTimeStep          1.000000000     fs     # default value
MD.Quench              F     # default value
MD.FireQuench              F     # default value
MD.InitialTemperature          0.000000000     K     # default value
MD.TargetTemperature          0.000000000     K     # default value
MD.TargetPressure          0.000000000     Ry/Bohr**3     # default value
MD.NoseMass          100.0000000     Ry*fs**2     # default value
MD.ParrinelloRahmanMass          100.0000000     Ry*fs**2     # default value
MD.AnnealOption     TemperatureAndPressure     # default value
MD.TauRelax          100.0000000     fs     # default value
MD.BulkModulus         0.6797730000E-02 Ry/Bohr**3     # default value
MD.FCDispl         0.4000000000E-01 Bohr     # default value
MD.FCfirst         1     # default value
MD.FClast        67     # default value
UseSpatialDecomposition              F     # default value
UseDomainDecomposition              F     # default value
Harris_functional              F     # default value
WriteKpoints              F
WriteForces              T
WriteDM              T     # default value
WriteDM.NetCDF              F     # default value
WriteDM.History.NetCDF              F     # default value
WriteDMHS.NetCDF              F     # default value
WriteDMHS.History.NetCDF              F     # default value
SCF.Read.Charge.NetCDF              F     # default value
SCF.Read.Deformation.Charge.NetCDF              F     # default value
SaveInitialChargeDensity              F     # default value
AnalyzeChargeDensityOnly              F     # default value
UseNewDiagk              F     # default value
WriteBands              F     # default value
WriteKbands              F
WriteEigenvalues              T
WriteCoorStep              F
WriteMDhistory              F
WriteMDXmol              T
UseSaveData              F
SaveHS              F
FixAuxiliaryCell              F     # default value
NaiveAuxiliaryCell              F     # default value
ReInitialiseDM              T     # default value
DM.AllowReuse              T     # default value
DM.AllowExtrapolation              T     # default value
DM.NormalizationTolerance         0.1000000000E-04     # default value
DM.NormalizeDuringSCF              T     # default value
MullikenInSCF              F     # default value
WarningMinimumAtomicDistance          1.000000000     Bohr     # default value
BornCharge              F     # default value
ChangeKgridInMD              F     # default value
Diag.ParallelOverK              F     # default value
MD.RelaxCellOnly              F     # default value
MD.RemoveIntraMolecularPressure              F     # default value
COOP.Write              F     # default value
SaveRho              F
SaveDeltaRho              F
SaveRhoXC              F     # default value
SaveElectrostaticPotential              F
SaveNeutralAtomPotential              F     # default value
SaveTotalPotential              F
SaveIonicCharge              F     # default value
SaveBaderCharge              F     # default value
SaveTotalCharge              F     # default value
Siesta2Wannier90.WriteMmn              F     # default value
Siesta2Wannier90.WriteUnk              F     # default value
Siesta2Wannier90.WriteAmn              F     # default value
Siesta2Wannier90.WriteEig              F     # default value
Siesta2Wannier90.NumberOfBandsUp         0     # default value
Siesta2Wannier90.NumberOfBandsDown         0     # default value
Siesta2Wannier90.NumberOfBands         0     # default value
RcSpatial          0.000000000     Bohr     # default value
ProcessorGridX         1     # default value
ProcessorGridY         1     # default value
ProcessorGridZ         1     # default value
processorY         4     # default value
blocksize        24     # default value
NumberOfEigenStates       983     # default value
TimeReversalSymmetryForKpoints              T     # default value
%block kgrid_Monkhorst_Pack
      1       0       0  0.0
      0       1       0  0.0
      0       0       1  0.0
LongOutput              F     # default value
WriteWaveFunctions              F
ForceAuxCell              F     # default value
AtomicCoordinatesFormat     Ang                                                                             
AtomCoorFormatOut     Ang                        # default value
LatticeConstant          1.889726878           Bohr
# above item originally: LatticeConstant          1.000000000     Ang       
%block DM.InitSpin
SCF.Pulay.Damping         -1.000000000         # default value
SCF.MixingWeightAfterPulay         0.5000000000         # default value
SCF.PulayMinimumHistory         2     # default value
SCF.PulayDmaxRegion          1000.000000         # default value
SCF.LinearMixingAfterPulay              F     # default value
SCF.Pulay.UseSVD              F     # default value
SCF.Pulay.DebugSVD              T     # default value
SCF.Pulay.RcondSVD         0.1000000000E-07     # default value
MeshSubDivisions         2     # default value
LatticeConstant          1.889726878           Bohr
# above item originally: LatticeConstant          1.000000000     Ang       
%block LatticeVectors
     11.975725345373620     0.000000000000000     0.000000000000000
     0.000000000000000     10.371282377926580     0.000000000000000
     0.000000000000000     0.000000000000000     57.333623994331909
PROCS_PER_NODE         4     # default value
PROCS_PER_NODE         4     # default value
DirectPhi              F     # default value
SimulateDoping              F     # default value
SlabDipoleCorrection              F     # default value
Diag.ParallelOverK              F     # default value
LatticeConstant          1.889726878           Bohr
# above item originally: LatticeConstant          1.000000000     Ang       
%block LatticeVectors
     11.975725345373620     0.000000000000000     0.000000000000000
     0.000000000000000     10.371282377926580     0.000000000000000
     0.000000000000000     0.000000000000000     57.333623994331909
Diag.AllInOne              F     # default value
Diag.DivideAndConquer              T     # default value
Diag.NoExpert              F     # default value
Diag.PreRotate              F     # default value
Diag.Use2D              T     # default value
SingleExcitation              F     # default value
OccupationFunction     FD     # default value
OccupationFunction     FD     # default value
SCF.Want.Variational.EKS              F     # default value
DM.FormattedFiles              F     # default value
DM.FormattedInput              F     # default value
DM.FormattedOutput              F     # default value
SCF.Want.Variational.EKS              F     # default value
SCF.Want.Variational.EKS              F     # default value
SCF.Want.Variational.EKS              F     # default value
SCF.Want.Variational.EKS              F     # default value
SCF.Want.Variational.EKS              F     # default value
SCF.Want.Variational.EKS              F     # default value
SCF.Want.Variational.EKS              F     # default value
SCF.Want.Variational.EKS              F     # default value
SCF.Want.Variational.EKS              F     # default value
SCF.Want.Variational.EKS              F     # default value
SCF.Want.Variational.EKS              F     # default value
SCF.Want.Variational.EKS              F     # default value
SCF.Want.Variational.EKS              F     # default value
SCF.Want.Variational.EKS              F     # default value
SCF.Want.Variational.EKS              F     # default value
SCF.Want.Variational.EKS              F     # default value
SCF.Want.Variational.EKS              F     # default value
SCF.Want.Variational.EKS              F     # default value
SCF.Want.Variational.EKS              F     # default value
SCF.Want.Variational.EKS              F     # default value
SCF.Want.Variational.EKS              F     # default value
SCF.Want.Variational.EKS              F     # default value
SCF.Want.Variational.EKS              F     # default value
SCF.Want.Variational.EKS              F     # default value
SCF.Want.Variational.EKS              F     # default value
SCF.Want.Variational.EKS              F     # default value
SCF.Want.Variational.EKS              F     # default value
SCF.Want.Variational.EKS              F     # default value
SCF.Want.Variational.EKS              F     # default value
SCF.Want.Variational.EKS              F     # default value
SCF.Want.Variational.EKS              F     # default value
SCF.Want.Variational.EKS              F     # default value
SCF.Want.Variational.EKS              F     # default value
SCF.Want.Variational.EKS              F     # default value
SCF.Want.Variational.EKS              F     # default value
SCF.Want.Variational.EKS              F     # default value
SCF.Want.Variational.EKS              F     # default value
SCF.Want.Variational.EKS              F     # default value
SCF.Want.Variational.EKS              F     # default value
SCF.Want.Variational.EKS              F     # default value
SCF.Want.Variational.EKS              F     # default value
SCF.Want.Variational.EKS              F     # default value
SCF.Want.Variational.EKS              F     # default value
SCF.Want.Variational.EKS              F     # default value
SCF.Want.Variational.EKS              F     # default value
SCF.Want.Variational.EKS              F     # default value
SCF.Want.Variational.EKS              F     # default value
SCF.Want.Variational.EKS              F     # default value
SCF.Want.Variational.EKS              F     # default value
SCF.Want.Variational.EKS              F     # default value
SCF.Want.Variational.EKS              F     # default value
SCF.Want.Variational.EKS              F     # default value
SCF.Want.Variational.EKS              F     # default value
SCF.Want.Variational.EKS              F     # default value
SCF.Want.Variational.EKS              F     # default value
SCF.Want.Variational.EKS              F     # default value
SCF.Want.Variational.EKS              F     # default value
SCF.Want.Variational.EKS              F     # default value
SCF.Want.Variational.EKS              F     # default value
SCF.Want.Variational.EKS              F     # default value
SCF.Want.Variational.EKS              F     # default value
SCF.Want.Variational.EKS              F     # default value
SCF.Want.Variational.EKS              F     # default value
SCF.Want.Variational.EKS              F     # default value
SCF.Want.Variational.EKS              F     # default value
SCF.Want.Variational.EKS              F     # default value
SCF.Want.Variational.EKS              F     # default value
#:list? Grid.CellSampling              F
WriteCoorXmol              F
WriteCoorCerius              F     # default value
BasisPressure         0.2000000000     GPa     # default value
OpticalCalculation              F     # default value
