Siesta Version: siesta-4.0--530
Architecture  : x86_64-unknown-linux-gnu--unknown
Compiler flags: /opt/spack/opt/spack/linux-centos7-x86_64/gcc-8.3.0/openmpi-3.1.3-zvzp4an3k2mmb7andyregxqllnueyg4jo/bin/mpif90 -g -O2
PP flags      : -DMPI -DFC_HAVE_FLUSH -DFC_HAVE_ABORT -DCDF 
PARALLEL version
NetCDF support

* Running on   32 nodes in parallel
>> Start of run:  10-APR-2024   4:39:29

                           ***********************       
                           *  WELCOME TO SIESTA  *       
                           ***********************       

reinit: Reading from standard input
************************** Dump of input data file ****************************
SystemName	geometry-23
SystemLabel	geometry-23
DM.MixingWeight	0.03
DM.NumberPulay	3
DM.Tolerance	1.d-4
DM.UseSaveDM	F
ElectronicTemperature	50 meV
MD.MaxForceTol	0.04 eV/Ang
MD.Steps	0
MD.TypeOfRun	CG
MD.UseSaveXV	F
MaxSCFIterations	500
MinSCFIterations	0
SCF.MustConverge	T
SaveDeltaRho	F
SaveElectrostaticPotential	F
SaveHS	F
SaveRho	F
SaveTotalPotential	F
SolutionMethod	diagon
Spin	non-polarized
Spin.Total	0
UseSaveData	F
WriteCoorStep	F
WriteCoorXmol	F
WriteEigenvalues	T
WriteForces	T
WriteHirshfeldPop	F
WriteKbands	F
WriteKpoints	F
WriteMDXmol	T
WriteMDhistory	F
WriteMullikenPop	0
WriteVoronoiPop	F
WriteWaveFunctions	F
SCFMustConverge	True
Spin     	non-polarized
XC.functional	GGA
XC.authors	PBE
MeshCutoff	9523.985108528535	eV
PAO.EnergyShift	0.1	eV
NumberOfSpecies	5
NumberOfAtoms	67
%block ChemicalSpecieslabel
    1 1 H.1
    2 8 O.2
    3 79 Au.gga.3
    4 79 Au.gga.4
    5 79 Au.gga.5
%endblock ChemicalSpecieslabel
%block PAO.Basis
H.1 2 0.46527
            n=1 0 2 E 99.93138 2.59932
            4.20357 1.84463
            n=2 1 1 E 24.56504 2.20231
            3.52816
O.2 3 -0.24233
            n=2 0 2 E 23.36061 3.39721
            4.50769 2.64066
            n=2 1 2 E 2.78334 5.14253
            6.14996 2.59356
            n=3 2 1 E 63.98188 0.16104
            3.54403
Au.gga.4 2
            n=6 0 2 P 1
            7.24700 5.71500
            n=5 2 2
            5.10700 2.83800
Au.gga.5 2
            n=6 0 2 P 1
            9.07500 5.78700
            n=5 2 2
            6.55700 2.87400
%endblock PAO.Basis
%block PAO.BasisSizes
    Au.gga.3	DZP
%endblock PAO.BasisSizes
LatticeConstant	1.0 Ang
%block LatticeVectors
    11.975725345373620     0.000000000000000     0.000000000000000
    0.000000000000000     10.371282377926580     0.000000000000000
    0.000000000000000     0.000000000000000     57.333623994331909
%endblock LatticeVectors
AtomicCoordinatesFormat  Ang
%block AtomicCoordinatesAndAtomicSpecies
     0.000733230     -0.074594943     24.821904941 5
     2.966848391     -0.088918857     24.832011260 5
     5.927920802     -0.098318236     24.868498434 5
     8.910873407     -0.077103645     24.888884201 5
     1.491438635      2.478463866     24.792170464 5
     4.446104585      2.480778589     24.836154757 5
     7.424011136      2.487840904     24.888549725 5
    10.391187827      2.480254268     24.823555103 5
     0.005172882      5.048692922     24.869968867 5
     2.966748483      5.060897544     24.818842471 5
     5.935284192      5.058605609     24.845871755 5
     8.901826681      5.052222005     24.953262607 5
     1.509700318      7.636093696     24.895316708 5
     4.451264812      7.637759740     24.816845794 5
     7.395067965      7.637215947     24.966621528 5
    10.381222268      7.633725071     24.932322522 5
     1.494659669      0.804498967     27.396014556 5
     4.439350362      0.806958975     27.407844854 5
     7.400667352      0.816897565     27.415309152 5
    10.376639197      0.828875805     27.397073789 5
    -0.004700484      3.359172215     27.358009122 5
     2.955018191      3.375250377     27.349256597 5
     5.925488364      3.375668698     27.375400962 5
     8.889292646      3.381246843     27.477779076 5
     1.491086467      5.943316117     27.386766418 5
     4.434530464      5.980460914     27.342022699 5
     7.408973624      5.958093555     27.452190484 5
    10.384087248      5.935082686     27.436049965 5
     0.041857680      8.546583831     27.352939705 5
     2.946682693      8.551169532     27.456272684 5
     5.888999458      8.541603850     27.481421430 5
     8.899340021      8.533896341     27.428185203 5
    -0.013567262      1.707424045     29.856238741 3
     2.935407576      1.710182770     29.896445165 3
     5.934765426      1.700755355     29.860619225 3
     8.917676089      1.675388267     29.939632146 3
     1.456056669      4.279140292     29.837029726 3
     4.435269438      4.296039541     29.778636382 3
     7.391538032      4.258650862     29.939629431 3
    10.365502893      4.241049705     29.931506838 3
    -0.024582798      6.842176691     29.819731817 3
     2.976605306      6.852281536     29.854827491 3
     5.934462134      6.825609539     29.904656044 3
     8.891902527      6.807536476     29.927810458 3
     1.434453587      9.435869440     29.991330107 3
     4.415854273      9.450582595     29.952911137 3
     7.447976403      9.391225199     29.898208430 3
    10.391158935      9.383268653     29.801179030 3
    -0.247792373     -0.037079740     32.319783875 3
     3.172888303      0.057979471     32.544830273 3
     5.998222546      0.026521546     32.446949072 3
     8.755867157      0.060085849     32.704743735 3
     1.461462751      2.902405883     32.300321477 3
     4.497156391      2.695986679     32.335389737 3
     7.395966053      2.633391963     32.548468200 3
    10.274773870      2.617894587     32.811503475 3
    -0.152669945      5.222644558     32.463494043 3
     3.021168880      5.317262185     32.453396730 3
     5.935416447      5.225497839     32.573427552 3
     8.824944652      5.149518785     32.673412050 3
     1.396859167      7.751919646     32.403084314 3
     4.428824973      7.792485157     32.529949647 3
     7.407431627      7.753329436     32.584385591 3
    10.299775294      7.695007581     32.607426913 3
     1.734946094      1.257058321     33.857990131 2
     2.071857020      1.574217308     34.698706585 1
    -0.780861258      1.170034961     33.605479521 1
%endblock AtomicCoordinatesAndAtomicSpecies
%block DM.InitSpin
%endblock DM.InitSpin
DM.UseSaveDM	True
#KPoint grid
%block kgrid_Monkhorst_Pack
     1       0       0  0.0
     0       1       0  0.0
     0       0       1  0.0
%endblock kgrid_Monkhorst_Pack
************************** End of input data file *****************************
*** WARNING:  FDF module: fdf_read: block DM.InitSpin is empty...

reinit: -----------------------------------------------------------------------
reinit: System Name: geometry-23
reinit: -----------------------------------------------------------------------
reinit: System Label: geometry-23                                                 
reinit: -----------------------------------------------------------------------

initatom: Reading input for the pseudopotentials and atomic orbitals ----------
 Species number:            1  Label: H.1 Atomic number:           1
 Species number:            2  Label: O.2 Atomic number:           8
 Species number:            3  Label: Au.gga.3 Atomic number:          79
 Species number:            4  Label: Au.gga.4 Atomic number:          79
 Species number:            5  Label: Au.gga.5 Atomic number:          79
Ground state valence configuration:   1s01
Reading pseudopotential information in formatted form from H.1.psf

Valence configuration for pseudopotential generation:
1s( 1.00) rc: 1.25
2p( 0.00) rc: 1.25
3d( 0.00) rc: 1.25
4f( 0.00) rc: 1.25
Ground state valence configuration:   2s02  2p04
Reading pseudopotential information in formatted form from O.2.psf

Valence configuration for pseudopotential generation:
2s( 2.00) rc: 1.14
2p( 4.00) rc: 1.14
3d( 0.00) rc: 1.14
4f( 0.00) rc: 1.14
Ground state valence configuration:   6s01  5d10
Reading pseudopotential information in formatted form from Au.gga.3.psf

Pseudopotential generated from a relativistic atomic calculation
There are spin-orbit pseudopotentials available
Spin-orbit interaction is not included in this calculation

Valence configuration for pseudopotential generation:
6s( 1.00) rc: 2.32
6p( 0.50) rc: 2.29
5d( 9.50) rc: 2.24
5f( 0.00) rc: 2.00
Ground state valence configuration:   6s01  5d10
Reading pseudopotential information in formatted form from Au.gga.4.psf

Pseudopotential generated from a relativistic atomic calculation
There are spin-orbit pseudopotentials available
Spin-orbit interaction is not included in this calculation

Valence configuration for pseudopotential generation:
6s( 1.00) rc: 2.32
6p( 0.50) rc: 2.29
5d( 9.50) rc: 2.24
5f( 0.00) rc: 2.00
Ground state valence configuration:   6s01  5d10
Reading pseudopotential information in formatted form from Au.gga.5.psf

Pseudopotential generated from a relativistic atomic calculation
There are spin-orbit pseudopotentials available
Spin-orbit interaction is not included in this calculation

Valence configuration for pseudopotential generation:
6s( 1.00) rc: 2.32
6p( 0.50) rc: 2.29
5d( 9.50) rc: 2.24
5f( 0.00) rc: 2.00
resizes: Read basis size for species Au.gga.3 = dzp                 
For H.1, standard SIESTA heuristics set lmxkb to 2
 (one more than the basis l, including polarization orbitals).
Use PS.lmax or PS.KBprojectors blocks to override.
For O.2, standard SIESTA heuristics set lmxkb to 3
 (one more than the basis l, including polarization orbitals).
Use PS.lmax or PS.KBprojectors blocks to override.
For Au.gga.3, standard SIESTA heuristics set lmxkb to 3
 (one more than the basis l, including polarization orbitals).
Use PS.lmax or PS.KBprojectors blocks to override.
For Au.gga.4, standard SIESTA heuristics set lmxkb to 3
 (one more than the basis l, including polarization orbitals).
Use PS.lmax or PS.KBprojectors blocks to override.
 Warning: Empty PAO shell. l =           1
 Will have a KB projector anyway...
For Au.gga.5, standard SIESTA heuristics set lmxkb to 3
 (one more than the basis l, including polarization orbitals).
Use PS.lmax or PS.KBprojectors blocks to override.
 Warning: Empty PAO shell. l =           1
 Will have a KB projector anyway...

<basis_specs>
===============================================================================
H.1                  Z=   1    Mass=  1.0100        Charge= 0.46527    
Lmxo=1 Lmxkb= 2    BasisType=split      Semic=F
L=0  Nsemic=0  Cnfigmx=1
          n=1  nzeta=2  polorb=0
            splnorm:   0.15000    
               vcte:    99.931    
               rinn:    2.5993    
               qcoe:    0.0000    
               qyuk:    0.0000    
               qwid:   0.10000E-01
                rcs:    4.2036      1.8446    
            lambdas:    1.0000      1.0000    
L=1  Nsemic=0  Cnfigmx=2
          n=1  nzeta=1  polorb=0
            splnorm:   0.15000    
               vcte:    24.565    
               rinn:    2.2023    
               qcoe:    0.0000    
               qyuk:    0.0000    
               qwid:   0.10000E-01
                rcs:    3.5282    
            lambdas:    1.0000    
-------------------------------------------------------------------------------
L=0  Nkbl=1  erefs: 0.17977+309
L=1  Nkbl=1  erefs: 0.17977+309
L=2  Nkbl=1  erefs: 0.17977+309
===============================================================================
</basis_specs>

atom: Called for H.1                   (Z =   1)

read_vps: Pseudopotential generation method:
read_vps: ATM3      Troullier-Martins                       
Total valence charge:    1.00000

xc_check: Exchange-correlation functional:
xc_check: GGA Perdew, Burke & Ernzerhof 1996
V l=0 = -2*Zval/r beyond r=  1.2343
V l=1 = -2*Zval/r beyond r=  1.2189
V l=2 = -2*Zval/r beyond r=  1.2189
All V_l potentials equal beyond r=  1.2343
This should be close to max(r_c) in ps generation
All pots = -2*Zval/r beyond r=  1.2343

VLOCAL1: 99.0% of the norm of Vloc inside     28.493 Ry
VLOCAL1: 99.9% of the norm of Vloc inside     64.935 Ry
atom: Maximum radius for 4*pi*r*r*local-pseudopot. charge    1.45251
atom: Maximum radius for r*vlocal+2*Zval:    1.21892
GHOST: No ghost state for L =  0
GHOST: No ghost state for L =  1
GHOST: No ghost state for L =  2

KBgen: Kleinman-Bylander projectors: 
   l= 0   rc=  1.364359   el= -0.477200   Ekb= -2.021939   kbcos= -0.344793
   l= 1   rc=  1.434438   el=  0.001076   Ekb= -0.443447   kbcos= -0.022843
   l= 2   rc=  1.470814   el=  0.002010   Ekb= -0.140543   kbcos= -0.002863

KBgen: Total number of  Kleinman-Bylander projectors:    9
atom: -------------------------------------------------------------------------

atom: SANKEY-TYPE ORBITALS:
atom: Selected multiple-zeta basis: split     

atom: basis set generated (by rescaling the valence charge)
atom: for a cation of charge   0.4653

SPLIT: Orbitals with angular momentum L= 0

SPLIT: Basis orbitals for state 1s

   izeta = 1
                 lambda =    1.000000
                     rc =    4.260636
                 energy =   -0.870244
                kinetic =    1.359204
    potential(screened) =   -2.229448
       potential(ionic) =   -2.289196

   izeta = 2
                 rmatch =    1.865767
              splitnorm =    0.575659
                 energy =    0.485405
                kinetic =    4.355632
    potential(screened) =   -3.870227
       potential(ionic) =   -3.839117

SPLIT: Orbitals with angular momentum L= 1

SPLIT: Basis orbitals for state 2p

   izeta = 1
                 lambda =    1.000000
                     rc =    3.576223
                 energy =    0.828629
                kinetic =    2.006518
    potential(screened) =   -1.177889
       potential(ionic) =   -1.299048
atom: Total number of Sankey-type orbitals:  5

atm_pop: Valence configuration (for local Pseudopot. screening):
 1s( 1.00)                                                            
 2p( 0.00)                                                            
Vna: chval, zval:    1.00000   1.00000

Vna:  Cut-off radius for the neutral-atom potential:   4.260636

atom: _________________________________________________________________________

<basis_specs>
===============================================================================
O.2                  Z=   8    Mass=  16.000        Charge=-0.24233    
Lmxo=2 Lmxkb= 3    BasisType=split      Semic=F
L=0  Nsemic=0  Cnfigmx=2
          n=1  nzeta=2  polorb=0
            splnorm:   0.15000    
               vcte:    23.361    
               rinn:    3.3972    
               qcoe:    0.0000    
               qyuk:    0.0000    
               qwid:   0.10000E-01
                rcs:    4.5077      2.6407    
            lambdas:    1.0000      1.0000    
L=1  Nsemic=0  Cnfigmx=2
          n=1  nzeta=2  polorb=0
            splnorm:   0.15000    
               vcte:    2.7833    
               rinn:    5.1425    
               qcoe:    0.0000    
               qyuk:    0.0000    
               qwid:   0.10000E-01
                rcs:    6.1500      2.5936    
            lambdas:    1.0000      1.0000    
L=2  Nsemic=0  Cnfigmx=3
          n=1  nzeta=1  polorb=0
            splnorm:   0.15000    
               vcte:    63.982    
               rinn:   0.16104    
               qcoe:    0.0000    
               qyuk:    0.0000    
               qwid:   0.10000E-01
                rcs:    3.5440    
            lambdas:    1.0000    
-------------------------------------------------------------------------------
L=0  Nkbl=1  erefs: 0.17977+309
L=1  Nkbl=1  erefs: 0.17977+309
L=2  Nkbl=1  erefs: 0.17977+309
L=3  Nkbl=1  erefs: 0.17977+309
===============================================================================
</basis_specs>

atom: Called for O.2                   (Z =   8)

read_vps: Pseudopotential generation method:
read_vps:  ATM3      Troullier-Martins                      
Total valence charge:    6.00000

read_vps: Pseudopotential includes a core correction:
read_vps: Pseudo-core for xc-correction

xc_check: Exchange-correlation functional:
xc_check: GGA Perdew, Burke & Ernzerhof 1996
V l=0 = -2*Zval/r beyond r=  1.1278
V l=1 = -2*Zval/r beyond r=  1.1278
V l=2 = -2*Zval/r beyond r=  1.1278
V l=3 = -2*Zval/r beyond r=  1.1278
All V_l potentials equal beyond r=  1.1278
This should be close to max(r_c) in ps generation
All pots = -2*Zval/r beyond r=  1.1278

VLOCAL1: 99.0% of the norm of Vloc inside     34.126 Ry
VLOCAL1: 99.9% of the norm of Vloc inside     77.774 Ry
atom: Maximum radius for 4*pi*r*r*local-pseudopot. charge    1.37759
atom: Maximum radius for r*vlocal+2*Zval:    1.18566
GHOST: No ghost state for L =  0
GHOST: No ghost state for L =  1
GHOST: No ghost state for L =  2
GHOST: No ghost state for L =  3

KBgen: Kleinman-Bylander projectors: 
   l= 0   rc=  1.262145   el= -1.757696   Ekb=  9.224596   kbcos=  0.328556
   l= 1   rc=  1.262145   el= -0.664256   Ekb= -7.912306   kbcos= -0.392969
   l= 2   rc=  1.343567   el=  0.002031   Ekb= -1.926788   kbcos= -0.003514
   l= 3   rc=  1.394919   el=  0.003153   Ekb= -0.739398   kbcos= -0.000358

KBgen: Total number of  Kleinman-Bylander projectors:   16
atom: -------------------------------------------------------------------------

atom: SANKEY-TYPE ORBITALS:
atom: Selected multiple-zeta basis: split     

atom: basis set generated (by rescaling the valence charge)
atom: for an anion of charge  -0.2423

SPLIT: Orbitals with angular momentum L= 0

SPLIT: Basis orbitals for state 2s

   izeta = 1
                 lambda =    1.000000
                     rc =    4.574469
                 energy =   -1.754696
                kinetic =    1.490911
    potential(screened) =   -3.245607
       potential(ionic) =  -11.056427

   izeta = 2
                 rmatch =    2.639108
              splitnorm =    0.147030
                 energy =   -1.549984
                kinetic =    2.329575
    potential(screened) =   -3.879559
       potential(ionic) =  -12.330999

SPLIT: Orbitals with angular momentum L= 1

SPLIT: Basis orbitals for state 2p

   izeta = 1
                 lambda =    1.000000
                     rc =    6.174996
                 energy =   -0.657402
                kinetic =    4.283935
    potential(screened) =   -4.941337
       potential(ionic) =  -12.290306

   izeta = 2
                 rmatch =    2.639108
              splitnorm =    0.214868
                 energy =   -0.410830
                kinetic =    7.128181
    potential(screened) =   -7.539011
       potential(ionic) =  -16.115673

SPLIT: Orbitals with angular momentum L= 2

SPLIT: Basis orbitals for state 3d

   izeta = 1
                 lambda =    1.000000
                     rc =    3.562532
                 energy =    3.658839
                kinetic =    6.488139
    potential(screened) =   -2.829300
       potential(ionic) =  -10.001503
atom: Total number of Sankey-type orbitals: 13

atm_pop: Valence configuration (for local Pseudopot. screening):
 2s( 2.00)                                                            
 2p( 4.00)                                                            
 3d( 0.00)                                                            
Vna: chval, zval:    6.00000   6.00000

Vna:  Cut-off radius for the neutral-atom potential:   6.174996
comcore: Pseudo-core radius Rcore=  1.377587

atom: _________________________________________________________________________

<basis_specs>
===============================================================================
Au.gga.3             Z=  79    Mass=  196.97        Charge= 0.17977+309
Lmxo=2 Lmxkb= 3    BasisType=split      Semic=F
L=0  Nsemic=0  Cnfigmx=6
          n=1  nzeta=2  polorb=1
            splnorm:   0.15000    
               vcte:    0.0000    
               rinn:    0.0000    
               qcoe:    0.0000    
               qyuk:    0.0000    
               qwid:   0.10000E-01
                rcs:    0.0000      0.0000    
            lambdas:    1.0000      1.0000    
L=1  Nsemic=0  Cnfigmx=6
L=2  Nsemic=0  Cnfigmx=5
          n=1  nzeta=2  polorb=0
            splnorm:   0.15000    
               vcte:    0.0000    
               rinn:    0.0000    
               qcoe:    0.0000    
               qyuk:    0.0000    
               qwid:   0.10000E-01
                rcs:    0.0000      0.0000    
            lambdas:    1.0000      1.0000    
-------------------------------------------------------------------------------
L=0  Nkbl=1  erefs: 0.17977+309
L=1  Nkbl=1  erefs: 0.17977+309
L=2  Nkbl=1  erefs: 0.17977+309
L=3  Nkbl=1  erefs: 0.17977+309
===============================================================================
</basis_specs>

atom: Called for Au.gga.3              (Z =  79)

read_vps: Pseudopotential generation method:
read_vps: ATM3      Troullier-Martins                       
Total valence charge:   11.00000

read_vps: Pseudopotential includes a core correction:
read_vps: Pseudo-core for xc-correction

xc_check: Exchange-correlation functional:
xc_check: GGA Perdew, Burke & Ernzerhof 1996
V l=0 = -2*Zval/r beyond r=  2.9833
V l=1 = -2*Zval/r beyond r=  2.9833
V l=2 = -2*Zval/r beyond r=  2.9833
V l=3 = -2*Zval/r beyond r=  2.9833
All V_l potentials equal beyond r=  2.2946
This should be close to max(r_c) in ps generation
All pots = -2*Zval/r beyond r=  2.9833
Using large-core scheme for Vlocal

atom: Estimated core radius    2.98333
atom: Maximum radius for 4*pi*r*r*local-pseudopot. charge    3.25614
atom: Maximum radius for r*vlocal+2*Zval:    3.02086
GHOST: No ghost state for L =  0
GHOST: No ghost state for L =  1
GHOST: No ghost state for L =  2
GHOST: No ghost state for L =  3

KBgen: Kleinman-Bylander projectors: 
   l= 0   rc=  2.382235   el= -0.513519   Ekb=  5.087925   kbcos=  0.278237
   l= 1   rc=  2.382235   el= -0.109829   Ekb=  2.881759   kbcos=  0.226107
   l= 2   rc=  2.382235   el= -0.663286   Ekb= -4.434057   kbcos= -0.694733
   l= 3   rc=  2.382235   el=  0.003083   Ekb= -2.571105   kbcos= -0.013009

KBgen: Total number of  Kleinman-Bylander projectors:   16
atom: -------------------------------------------------------------------------

atom: SANKEY-TYPE ORBITALS:
atom: Selected multiple-zeta basis: split     

SPLIT: Orbitals with angular momentum L= 0

SPLIT: Basis orbitals for state 6s

SPLIT: PAO cut-off radius determined from an
SPLIT: energy shift=  0.007350 Ry

   izeta = 1
                 lambda =    1.000000
                     rc =    6.723087
                 energy =   -0.506600
                kinetic =    0.398622
    potential(screened) =   -0.905223
       potential(ionic) =   -8.548368

   izeta = 2
                 rmatch =    5.643738
              splitnorm =    0.150000
                 energy =   -0.431591
                kinetic =    0.653484
    potential(screened) =   -1.085075
       potential(ionic) =   -9.245123

SPLIT: Orbitals with angular momentum L= 2

SPLIT: Basis orbitals for state 5d

SPLIT: PAO cut-off radius determined from an
SPLIT: energy shift=  0.007350 Ry

   izeta = 1
                 lambda =    1.000000
                     rc =    4.737670
                 energy =   -0.656650
                kinetic =    5.068938
    potential(screened) =   -5.725588
       potential(ionic) =  -16.071180

   izeta = 2
                 rmatch =    2.802581
              splitnorm =    0.150000
                 energy =   -0.349126
                kinetic =    7.097014
    potential(screened) =   -7.446140
       potential(ionic) =  -18.531204

POLgen: Perturbative polarization orbital with L=  1

POLgen: Polarization orbital for state 6s

   izeta = 1
                     rc =    6.723087
                 energy =   -0.153149
                kinetic =    0.703267
    potential(screened) =   -0.856416
       potential(ionic) =   -8.074316
atom: Total number of Sankey-type orbitals: 15

atm_pop: Valence configuration (for local Pseudopot. screening):
 6s( 1.00)                                                            
 6p( 0.00)                                                            
 5d(10.00)                                                            
Vna: chval, zval:   11.00000  11.00000

Vna:  Cut-off radius for the neutral-atom potential:   6.723087
comcore: Pseudo-core radius Rcore=  3.977066

atom: _________________________________________________________________________

<basis_specs>
===============================================================================
Au.gga.4             Z=  79    Mass=  196.97        Charge= 0.17977+309
Lmxo=2 Lmxkb= 3    BasisType=split      Semic=F
L=0  Nsemic=0  Cnfigmx=6
          n=1  nzeta=2  polorb=1
            splnorm:   0.15000    
               vcte:    0.0000    
               rinn:    0.0000    
               qcoe:    0.0000    
               qyuk:    0.0000    
               qwid:   0.10000E-01
                rcs:    7.2470      5.7150    
            lambdas:    1.0000      1.0000    
L=1  Nsemic=0  Cnfigmx=6
L=2  Nsemic=0  Cnfigmx=5
          n=1  nzeta=2  polorb=0
            splnorm:   0.15000    
               vcte:    0.0000    
               rinn:    0.0000    
               qcoe:    0.0000    
               qyuk:    0.0000    
               qwid:   0.10000E-01
                rcs:    5.1070      2.8380    
            lambdas:    1.0000      1.0000    
-------------------------------------------------------------------------------
L=0  Nkbl=1  erefs: 0.17977+309
L=1  Nkbl=1  erefs: 0.17977+309
L=2  Nkbl=1  erefs: 0.17977+309
L=3  Nkbl=1  erefs: 0.17977+309
===============================================================================
</basis_specs>

atom: Called for Au.gga.4              (Z =  79)

read_vps: Pseudopotential generation method:
read_vps: ATM3      Troullier-Martins                       
Total valence charge:   11.00000

read_vps: Pseudopotential includes a core correction:
read_vps: Pseudo-core for xc-correction

xc_check: Exchange-correlation functional:
xc_check: GGA Perdew, Burke & Ernzerhof 1996
V l=0 = -2*Zval/r beyond r=  2.9833
V l=1 = -2*Zval/r beyond r=  2.9833
V l=2 = -2*Zval/r beyond r=  2.9833
V l=3 = -2*Zval/r beyond r=  2.9833
All V_l potentials equal beyond r=  2.2946
This should be close to max(r_c) in ps generation
All pots = -2*Zval/r beyond r=  2.9833
Using large-core scheme for Vlocal

atom: Estimated core radius    2.98333
atom: Maximum radius for 4*pi*r*r*local-pseudopot. charge    3.25614
atom: Maximum radius for r*vlocal+2*Zval:    3.02086
GHOST: No ghost state for L =  0
GHOST: No ghost state for L =  1
GHOST: No ghost state for L =  2
GHOST: No ghost state for L =  3

KBgen: Kleinman-Bylander projectors: 
   l= 0   rc=  2.382235   el= -0.513519   Ekb=  5.087925   kbcos=  0.278237
   l= 1   rc=  2.382235   el= -0.109829   Ekb=  2.881759   kbcos=  0.226107
   l= 2   rc=  2.382235   el= -0.663286   Ekb= -4.434057   kbcos= -0.694733
   l= 3   rc=  2.382235   el=  0.003083   Ekb= -2.571105   kbcos= -0.013009

KBgen: Total number of  Kleinman-Bylander projectors:   16
atom: -------------------------------------------------------------------------

atom: SANKEY-TYPE ORBITALS:
atom: Selected multiple-zeta basis: split     

SPLIT: Orbitals with angular momentum L= 0

SPLIT: Basis orbitals for state 6s

   izeta = 1
                 lambda =    1.000000
                     rc =    7.246712
                 energy =   -0.510007
                kinetic =    0.385781
    potential(screened) =   -0.895788
       potential(ionic) =   -8.490322

   izeta = 2
                 rmatch =    5.786611
              splitnorm =    0.137361
                 energy =   -0.445151
                kinetic =    0.623150
    potential(screened) =   -1.068301
       potential(ionic) =   -9.190366

SPLIT: Orbitals with angular momentum L= 2

SPLIT: Basis orbitals for state 5d

   izeta = 1
                 lambda =    1.000000
                     rc =    5.106662
                 energy =   -0.659762
                kinetic =    5.025587
    potential(screened) =   -5.685349
       potential(ionic) =  -16.000690

   izeta = 2
                 rmatch =    2.873530
              splitnorm =    0.141056
                 energy =   -0.387690
                kinetic =    6.936955
    potential(screened) =   -7.324646
       potential(ionic) =  -18.374036

POLgen: Perturbative polarization orbital with L=  1

POLgen: Polarization orbital for state 6s

   izeta = 1
                     rc =    7.246712
                 energy =   -0.163164
                kinetic =    0.676967
    potential(screened) =   -0.840131
       potential(ionic) =   -7.980465
atom: Total number of Sankey-type orbitals: 15

atm_pop: Valence configuration (for local Pseudopot. screening):
 6s( 1.00)                                                            
 6p( 0.00)                                                            
 5d(10.00)                                                            
Vna: chval, zval:   11.00000  11.00000

Vna:  Cut-off radius for the neutral-atom potential:   7.246712
comcore: Pseudo-core radius Rcore=  3.977066

atom: _________________________________________________________________________

<basis_specs>
===============================================================================
Au.gga.5             Z=  79    Mass=  196.97        Charge= 0.17977+309
Lmxo=2 Lmxkb= 3    BasisType=split      Semic=F
L=0  Nsemic=0  Cnfigmx=6
          n=1  nzeta=2  polorb=1
            splnorm:   0.15000    
               vcte:    0.0000    
               rinn:    0.0000    
               qcoe:    0.0000    
               qyuk:    0.0000    
               qwid:   0.10000E-01
                rcs:    9.0750      5.7870    
            lambdas:    1.0000      1.0000    
L=1  Nsemic=0  Cnfigmx=6
L=2  Nsemic=0  Cnfigmx=5
          n=1  nzeta=2  polorb=0
            splnorm:   0.15000    
               vcte:    0.0000    
               rinn:    0.0000    
               qcoe:    0.0000    
               qyuk:    0.0000    
               qwid:   0.10000E-01
                rcs:    6.5570      2.8740    
            lambdas:    1.0000      1.0000    
-------------------------------------------------------------------------------
L=0  Nkbl=1  erefs: 0.17977+309
L=1  Nkbl=1  erefs: 0.17977+309
L=2  Nkbl=1  erefs: 0.17977+309
L=3  Nkbl=1  erefs: 0.17977+309
===============================================================================
</basis_specs>

atom: Called for Au.gga.5              (Z =  79)

read_vps: Pseudopotential generation method:
read_vps: ATM3      Troullier-Martins                       
Total valence charge:   11.00000

read_vps: Pseudopotential includes a core correction:
read_vps: Pseudo-core for xc-correction

xc_check: Exchange-correlation functional:
xc_check: GGA Perdew, Burke & Ernzerhof 1996
V l=0 = -2*Zval/r beyond r=  2.9833
V l=1 = -2*Zval/r beyond r=  2.9833
V l=2 = -2*Zval/r beyond r=  2.9833
V l=3 = -2*Zval/r beyond r=  2.9833
All V_l potentials equal beyond r=  2.2946
This should be close to max(r_c) in ps generation
All pots = -2*Zval/r beyond r=  2.9833
Using large-core scheme for Vlocal

atom: Estimated core radius    2.98333
atom: Maximum radius for 4*pi*r*r*local-pseudopot. charge    3.25614
atom: Maximum radius for r*vlocal+2*Zval:    3.02086
GHOST: No ghost state for L =  0
GHOST: No ghost state for L =  1
GHOST: No ghost state for L =  2
GHOST: No ghost state for L =  3

KBgen: Kleinman-Bylander projectors: 
   l= 0   rc=  2.382235   el= -0.513519   Ekb=  5.087925   kbcos=  0.278237
   l= 1   rc=  2.382235   el= -0.109829   Ekb=  2.881759   kbcos=  0.226107
   l= 2   rc=  2.382235   el= -0.663286   Ekb= -4.434057   kbcos= -0.694733
   l= 3   rc=  2.382235   el=  0.003083   Ekb= -2.571105   kbcos= -0.013009

KBgen: Total number of  Kleinman-Bylander projectors:   16
atom: -------------------------------------------------------------------------

atom: SANKEY-TYPE ORBITALS:
atom: Selected multiple-zeta basis: split     

SPLIT: Orbitals with angular momentum L= 0

SPLIT: Basis orbitals for state 6s

   izeta = 1
                 lambda =    1.000000
                     rc =    9.075230
                 energy =   -0.513232
                kinetic =    0.370471
    potential(screened) =   -0.883703
       potential(ionic) =   -8.414024

   izeta = 2
                 rmatch =    5.786611
              splitnorm =    0.148012
                 energy =   -0.446211
                kinetic =    0.620438
    potential(screened) =   -1.066649
       potential(ionic) =   -9.184844

SPLIT: Orbitals with angular momentum L= 2

SPLIT: Basis orbitals for state 5d

   izeta = 1
                 lambda =    1.000000
                     rc =    6.557093
                 energy =   -0.663050
                kinetic =    4.966809
    potential(screened) =   -5.629858
       potential(ionic) =  -15.898967

   izeta = 2
                 rmatch =    2.873530
              splitnorm =    0.149391
                 energy =   -0.387750
                kinetic =    6.936394
    potential(screened) =   -7.324143
       potential(ionic) =  -18.373423

POLgen: Perturbative polarization orbital with L=  1

POLgen: Polarization orbital for state 6s

   izeta = 1
                     rc =    9.075230
                 energy =   -0.175654
                kinetic =    0.640919
    potential(screened) =   -0.816572
       potential(ionic) =   -7.839035
atom: Total number of Sankey-type orbitals: 15

atm_pop: Valence configuration (for local Pseudopot. screening):
 6s( 1.00)                                                            
 6p( 0.00)                                                            
 5d(10.00)                                                            
Vna: chval, zval:   11.00000  11.00000

Vna:  Cut-off radius for the neutral-atom potential:   9.075230
comcore: Pseudo-core radius Rcore=  3.977066

atom: _________________________________________________________________________

prinput: Basis input ----------------------------------------------------------

PAO.BasisType split     

%block ChemicalSpeciesLabel
    1    1 H.1                     # Species index, atomic number, species label
    2    8 O.2                     # Species index, atomic number, species label
    3   79 Au.gga.3                # Species index, atomic number, species label
    4   79 Au.gga.4                # Species index, atomic number, species label
    5   79 Au.gga.5                # Species index, atomic number, species label
%endblock ChemicalSpeciesLabel

%block PAO.Basis                 # Define Basis set
H.1                   2   0.465            # Label, l-shells, ionic net charge
 n=1   0   2                         # n, l, Nzeta 
   4.261      1.866   
   1.000      1.000   
 n=2   1   1                         # n, l, Nzeta 
   3.576   
   1.000   
O.2                   3  -0.242            # Label, l-shells, ionic net charge
 n=2   0   2                         # n, l, Nzeta 
   4.574      2.639   
   1.000      1.000   
 n=2   1   2                         # n, l, Nzeta 
   6.175      2.639   
   1.000      1.000   
 n=3   2   1                         # n, l, Nzeta 
   3.563   
   1.000   
Au.gga.3              2                    # Species label, number of l-shells
 n=6   0   2 P   1                   # n, l, Nzeta, Polarization, NzetaPol
   6.723      5.644   
   1.000      1.000   
 n=5   2   2                         # n, l, Nzeta 
   4.738      2.803   
   1.000      1.000   
Au.gga.4              2                    # Species label, number of l-shells
 n=6   0   2 P   1                   # n, l, Nzeta, Polarization, NzetaPol
   7.247      5.787   
   1.000      1.000   
 n=5   2   2                         # n, l, Nzeta 
   5.107      2.874   
   1.000      1.000   
Au.gga.5              2                    # Species label, number of l-shells
 n=6   0   2 P   1                   # n, l, Nzeta, Polarization, NzetaPol
   9.075      5.787   
   1.000      1.000   
 n=5   2   2                         # n, l, Nzeta 
   6.557      2.874   
   1.000      1.000   
%endblock PAO.Basis

prinput: ----------------------------------------------------------------------

Dumping basis to NetCDF file H.1.ion.nc
Dumping basis to NetCDF file O.2.ion.nc
Dumping basis to NetCDF file Au.gga.3.ion.nc
Dumping basis to NetCDF file Au.gga.4.ion.nc
Dumping basis to NetCDF file Au.gga.5.ion.nc
coor:   Atomic-coordinates input format  =     Cartesian coordinates
coor:                                          (in Angstroms)

siesta: Atomic coordinates (Bohr) and species
siesta:      0.00139  -0.14096  46.90662  5        1
siesta:      5.60653  -0.16803  46.92572  5        2
siesta:     11.20215  -0.18579  46.99467  5        3
siesta:     16.83912  -0.14570  47.03319  5        4
siesta:      2.81841   4.68362  46.85043  5        5
siesta:      8.40192   4.68799  46.93355  5        6
siesta:     14.02935   4.70134  47.03256  5        7
siesta:     19.63651   4.68700  46.90974  5        8
siesta:      0.00978   9.54065  46.99745  5        9
siesta:      5.60634   9.56371  46.90083  5       10
siesta:     11.21607   9.55938  46.95191  5       11
siesta:     16.82202   9.54732  47.15485  5       12
siesta:      2.85292  14.43013  47.04535  5       13
siesta:      8.41167  14.43328  46.89706  5       14
siesta:     13.97466  14.43225  47.18010  5       15
siesta:     19.61767  14.42566  47.11528  5       16
siesta:      2.82450   1.52028  51.77099  5       17
siesta:      8.38916   1.52493  51.79334  5       18
siesta:     13.98524   1.54371  51.80745  5       19
siesta:     19.60901   1.56635  51.77299  5       20
siesta:     -0.00888   6.34792  51.69917  5       21
siesta:      5.58418   6.37830  51.68263  5       22
siesta:     11.19755   6.37909  51.73203  5       23
siesta:     16.79834   6.38963  51.92550  5       24
siesta:      2.81775  11.23124  51.75351  5       25
siesta:      8.38005  11.30144  51.66896  5       26
siesta:     14.00094  11.25917  51.87714  5       27
siesta:     19.62309  11.21569  51.84664  5       28
siesta:      0.07910  16.15071  51.68959  5       29
siesta:      5.56843  16.15937  51.88486  5       30
siesta:     11.12860  16.14130  51.93238  5       31
siesta:     16.81732  16.12673  51.83178  5       32
siesta:     -0.02564   3.22657  56.42014  3       33
siesta:      5.54712   3.23178  56.49612  3       34
siesta:     11.21509   3.21396  56.42841  3       35
siesta:     16.85197   3.16603  56.57773  3       36
siesta:      2.75155   8.08641  56.38384  3       37
siesta:      8.38145   8.11834  56.27349  3       38
siesta:     13.96799   8.04769  56.57772  3       39
siesta:     19.58797   8.01443  56.56237  3       40
siesta:     -0.04645  12.92985  56.35115  3       41
siesta:      5.62497  12.94894  56.41747  3       42
siesta:     11.21451  12.89854  56.51163  3       43
siesta:     16.80327  12.86438  56.55539  3       44
siesta:      2.71073  17.83122  56.67542  3       45
siesta:      8.34476  17.85902  56.60282  3       46
siesta:     14.07464  17.74685  56.49945  3       47
siesta:     19.63645  17.73181  56.31609  3       48
siesta:     -0.46826  -0.07007  61.07556  3       49
siesta:      5.99589   0.10957  61.50084  3       50
siesta:     11.33500   0.05012  61.31587  3       51
siesta:     16.54620   0.11355  61.80303  3       52
siesta:      2.76177   5.48475  61.03879  3       53
siesta:      8.49840   5.09468  61.10506  3       54
siesta:     13.97636   4.97639  61.50772  3       55
siesta:     19.41652   4.94711  62.00478  3       56
siesta:     -0.28850   9.86937  61.34714  3       57
siesta:      5.70918  10.04817  61.32806  3       58
siesta:     11.21632   9.87476  61.55488  3       59
siesta:     16.67674   9.73118  61.74382  3       60
siesta:      2.63968  14.64901  61.23298  3       61
siesta:      8.36927  14.72567  61.47272  3       62
siesta:     13.99802  14.65168  61.57559  3       63
siesta:     19.46376  14.54146  61.61913  3       64
siesta:      3.27857   2.37550  63.98235  2       65
siesta:      3.91524   2.97484  65.57108  1       66
siesta:     -1.47561   2.21105  63.50518  1       67

siesta: System type = slab      

initatomlists: Number of atoms, orbitals, and projectors:     67   983  1058

siesta: ******************** Simulation parameters ****************************
siesta:
siesta: The following are some of the parameters of the simulation.
siesta: A complete list of the parameters used, including default values,
siesta: can be found in file out.fdf
siesta:
redata: Non-Collinear-spin run           =     F
redata: SpinPolarized (Up/Down) run      =     F
redata: Number of spin components        =     1
redata: Long output                      =     F
redata: Number of Atomic Species         =        5
redata: Charge density info will appear in .RHO file
redata: Write Mulliken Pop.              =     NO
redata: Mesh Cutoff                      =   699.9937  Ry
redata: Net charge of the system         =     0.0000 |e|
redata: Min. number of SCF Iter          =        0
redata: Max. number of SCF Iter          =      500
redata: SCF convergence failure will abort job
redata: Mix DM or H after convergence    =     F
redata: Recompute H after scf cycle      =     F
redata: Performing Pulay mixing using    =     3 iterations
redata: Mix DM in first SCF step ?       =     F
redata: Write Pulay info on disk?        =     F
redata: Discard 1st Pulay DM after  kick =     F
redata: New DM Mixing Weight             =     0.0300
redata: New DM Occupancy tolerance       = 0.000000000001
redata: No kicks to SCF
redata: DM Mixing Weight for Kicks       =     0.5000
redata: DM Tolerance for SCF             =     0.000100
redata: Require (free) Energy convergence in SCF =     F
redata: DM (free)Energy tolerance for SCF =     0.000010 eV
redata: Require Harris convergence for SCF =     F
redata: DM Harris energy tolerance for SCF =     0.000010 eV
redata: Using Saved Data (generic)   =     F
redata: Use continuation files for DM    =     F
redata: Neglect nonoverlap interactions  =     F
redata: Method of Calculation            =     Diagonalization
redata: Divide and Conquer               =     T
redata: Electronic Temperature           =     0.0037  Ry
redata: Fix the spin of the system       =     F
redata: Dynamics option                  =     Single-point calculation
redata: ***********************************************************************
Total number of electrons:   712.000000
Total ionic charge:   712.000000

* ProcessorY, Blocksize:    4  24


* Orbital distribution balance (max,min):    48    24

 Kpoints in:            1 . Kpoints trimmed:            1

siesta: k-grid: Number of k-points =     1
siesta: k-grid: Cutoff (effective) =     5.186 Ang
siesta: k-grid: Supercell and displacements
siesta: k-grid:    1   0   0      0.000
siesta: k-grid:    0   1   0      0.000
siesta: k-grid:    0   0   1      0.000

                     ====================================
                        Single-point calculation
                     ====================================

outcell: Unit cell vectors (Ang):
       11.975725    0.000000    0.000000
        0.000000   10.371282    0.000000
        0.000000    0.000000   57.333624

outcell: Cell vector modules (Ang)   :   11.975725   10.371282   57.333624
outcell: Cell angles (23,13,12) (deg):     90.0000     90.0000     90.0000
outcell: Cell volume (Ang**3)        :   7121.0442
 Folding of H and S is implicitly performed
New_DM. Step:     1
Initializing Density Matrix...

initdm: WARNING: DM.InitSpin not used because nspin < 2
New grid distribution:   1
           1       1:   96    1:   23    1:   60
           2       1:   96    1:   23   61:  120
           3       1:   96    1:   23  121:  180
           4       1:   96    1:   23  181:  240
           5       1:   96    1:   23  241:  300
           6       1:   96    1:   23  301:  360
           7       1:   96    1:   23  361:  420
           8       1:   96    1:   23  421:  480
           9       1:   96   24:   46    1:   60
          10       1:   96   24:   46   61:  120
          11       1:   96   24:   46  121:  180
          12       1:   96   24:   46  181:  240
          13       1:   96   24:   46  241:  300
          14       1:   96   24:   46  301:  360
          15       1:   96   24:   46  361:  420
          16       1:   96   24:   46  421:  480
          17       1:   96   47:   68    1:   60
          18       1:   96   47:   68   61:  120
          19       1:   96   47:   68  121:  180
          20       1:   96   47:   68  181:  240
          21       1:   96   47:   68  241:  300
          22       1:   96   47:   68  301:  360
          23       1:   96   47:   68  361:  420
          24       1:   96   47:   68  421:  480
          25       1:   96   69:   90    1:   60
          26       1:   96   69:   90   61:  120
          27       1:   96   69:   90  121:  180
          28       1:   96   69:   90  181:  240
          29       1:   96   69:   90  241:  300
          30       1:   96   69:   90  301:  360
          31       1:   96   69:   90  361:  420
          32       1:   96   69:   90  421:  480

InitMesh: MESH =   192 x   180 x   960 =    33177600
InitMesh: (bp) =    96 x    90 x   480 =     4147200
InitMesh: Mesh cutoff (required, used) =   699.994   710.396 Ry
ExtMesh (bp) on 0 =   252 x   191 x   224 =    10781568
New grid distribution:   2
           1      48:   96    1:   44    1:  206
           2      49:   96   46:   90  229:  236
           3      49:   96    1:   45  215:  221
           4       1:   48    1:   45  237:  245
           5      48:   96    1:   45  246:  257
           6      49:   96    1:   44  258:  480
           7       1:   48   46:   90  207:  214
           8      49:   96   46:   90  215:  221
           9       1:   47    1:   44    1:  206
          10       1:   48    1:   45  207:  214
          11       1:   48    1:   45  215:  221
          12      49:   96    1:   45  237:  245
          13       1:   47    1:   45  246:  257
          14       1:   48    1:   43  258:  480
          15      49:   96    1:   45  207:  214
          16       1:   48   46:   90  215:  221
          17      48:   96   45:   90    1:  206
          18       1:   48    1:   45  229:  236
          19      49:   96    1:   45  222:  228
          20      49:   96   46:   90  237:  245
          21      48:   96   46:   90  246:  257
          22       1:   48   44:   90  258:  480
          23      49:   96   46:   90  207:  214
          24      49:   96   46:   90  222:  228
          25       1:   47   45:   90    1:  206
          26      49:   96    1:   45  229:  236
          27       1:   48    1:   45  222:  228
          28       1:   48   46:   90  237:  245
          29       1:   47   46:   90  246:  257
          30      49:   96   45:   90  258:  480
          31       1:   48   46:   90  229:  236
          32       1:   48   46:   90  222:  228
New grid distribution:   3
           1      48:   96    1:   44    1:  185
           2      49:   96    1:   45  270:  286
           3      49:   96   46:   90  186:  202
           4       1:   48    1:   45  237:  253
           5      49:   96    1:   45  237:  253
           6      48:   96    1:   44  287:  480
           7       1:   48    1:   45  220:  236
           8      49:   96    1:   45  220:  236
           9       1:   47    1:   45    1:  185
          10      49:   96   46:   90  270:  286
          11       1:   48   46:   90  220:  236
          12      49:   96    1:   45  203:  219
          13       1:   48    1:   45  270:  286
          14       1:   47    1:   41  287:  480
          15      49:   96    1:   45  186:  202
          16      49:   96   46:   90  220:  236
          17      48:   96   45:   90    1:  185
          18       1:   48    1:   45  186:  202
          19       1:   48    1:   45  254:  269
          20       1:   48   46:   90  203:  219
          21      49:   96   46:   90  237:  253
          22       1:   47   42:   90  287:  480
          23       1:   48   46:   90  186:  202
          24      49:   96    1:   45  254:  269
          25       1:   47   46:   90    1:  185
          26       1:   48   46:   90  270:  286
          27      49:   96   46:   90  254:  269
          28      49:   96   46:   90  203:  219
          29       1:   48   46:   90  237:  253
          30      48:   96   45:   90  287:  480
          31       1:   48    1:   45  203:  219
          32       1:   48   46:   90  254:  269
Setting up quadratic distribution...
ExtMesh (bp) on 0 =   205 x   212 x   370 =    16080200
PhiOnMesh: Number of (b)points on node 0 =               444136
PhiOnMesh: nlist on node 0 =              3686321

stepf: Fermi-Dirac step function

siesta: Program's energy decomposition (eV):
siesta: Ebs     =     -3471.343014
siesta: Eions   =     74448.861464
siesta: Ena     =      3160.942512
siesta: Ekin    =     44340.467594
siesta: Enl     =    -18459.900972
siesta: DEna    =         0.000048
siesta: DUscf   =         0.000000
siesta: DUext   =         0.000000
siesta: Exc     =    -46061.133715
siesta: eta*DQ  =         0.000000
siesta: Emadel  =         0.000000
siesta: Emeta   =         0.000000
siesta: Emolmec =         0.000000
siesta: Ekinion =         0.000000
siesta: Eharris =    -91689.668891
siesta: Etot    =    -91468.485998
siesta: FreeEng =    -91468.990006

   scf: iscf   Eharris(eV)      E_KS(eV)   FreeEng(eV)    dDmax  Ef(eV)
   scf:    1   -91689.6689   -91468.4860   -91468.9900  1.62908 -1.3699
timer: Routine,Calls,Time,% =    IterSCF     1       8.210  29.40
   scf:    2  -104757.7139   -90990.2997   -90990.4351220.30863-12.0691
   scf:    3   -91668.8594   -91474.5414   -91474.7653  1.37585 -1.9320
   scf:    4   -91648.9400   -91483.2774   -91483.5768  1.24589 -2.2872
   scf:    5   -91603.4200   -91508.5717   -91508.8015  0.78815 -3.4649
   scf:    6   -91582.4626   -91525.2086   -91525.3991  0.51937 -4.2337
   scf:    7   -91579.0217   -91532.5612   -91532.7145  0.56959 -4.4096
   scf:    8   -91577.4148   -91537.3583   -91537.4613  0.52079 -4.2497
   scf:    9   -91577.2024   -91542.6440   -91542.7402  0.39633 -4.0520
   scf:   10   -91577.7454   -91549.8266   -91549.9218  0.27541 -3.8766
   scf:   11   -91578.7384   -91564.5822   -91564.6781  0.22773 -3.7518
   scf:   12   -91578.2784   -91566.9933   -91567.0896  0.20170 -3.8068
   scf:   13   -91577.5103   -91568.9145   -91569.0157  0.13807 -3.8979
   scf:   14   -91576.7945   -91568.8664   -91568.9713  0.10536 -4.0039
   scf:   15   -91576.7490   -91568.9673   -91569.0714  0.10486 -4.0026
   scf:   16   -91576.6982   -91569.7689   -91569.8696  0.09967 -3.9596
   scf:   17   -91576.6963   -91570.1332   -91570.2339  0.09355 -3.9677
   scf:   18   -91576.7048   -91572.7148   -91572.8178  0.06422 -4.0551
   scf:   19   -91576.7012   -91573.3260   -91573.4299  0.05836 -4.0696
   scf:   20   -91576.6916   -91574.4208   -91574.5253  0.03517 -4.0680
   scf:   21   -91576.6823   -91574.6523   -91574.7559  0.02611 -4.0438
   scf:   22   -91576.6731   -91574.6867   -91574.7893  0.02293 -4.0200
   scf:   23   -91576.6675   -91574.6637   -91574.7660  0.02114 -4.0131
   scf:   24   -91576.6652   -91574.6979   -91574.8003  0.02197 -4.0156
   scf:   25   -91576.6644   -91574.8566   -91574.9594  0.01951 -4.0277
   scf:   26   -91576.6651   -91575.0546   -91575.1577  0.01877 -4.0356
   scf:   27   -91576.6682   -91575.6044   -91575.7077  0.01501 -4.0403
   scf:   28   -91576.6688   -91575.8771   -91575.9801  0.01290 -4.0338
   scf:   29   -91576.6674   -91576.0517   -91576.1543  0.00891 -4.0199
   scf:   30   -91576.6662   -91576.0756   -91576.1782  0.00705 -4.0166
   scf:   31   -91576.6646   -91576.0689   -91576.1716  0.00600 -4.0179
   scf:   32   -91576.6642   -91576.0780   -91576.1808  0.00586 -4.0204
   scf:   33   -91576.6639   -91576.1175   -91576.2204  0.00551 -4.0250
   scf:   34   -91576.6640   -91576.1641   -91576.2670  0.00572 -4.0262
   scf:   35   -91576.6643   -91576.2702   -91576.3731  0.00541 -4.0256
   scf:   36   -91576.6645   -91576.3478   -91576.4506  0.00430 -4.0231
   scf:   37   -91576.6644   -91576.4115   -91576.5143  0.00285 -4.0211
   scf:   38   -91576.6642   -91576.4502   -91576.5530  0.00245 -4.0213
   scf:   39   -91576.6640   -91576.4655   -91576.5684  0.00225 -4.0226
   scf:   40   -91576.6639   -91576.4738   -91576.5767  0.00209 -4.0245
   scf:   41   -91576.6639   -91576.4793   -91576.5822  0.00201 -4.0249
   scf:   42   -91576.6639   -91576.4975   -91576.6004  0.00187 -4.0246
   scf:   43   -91576.6639   -91576.5092   -91576.6121  0.00176 -4.0242
   scf:   44   -91576.6639   -91576.5465   -91576.6494  0.00129 -4.0234
   scf:   45   -91576.6639   -91576.5704   -91576.6733  0.00108 -4.0236
   scf:   46   -91576.6639   -91576.5953   -91576.6983  0.00097 -4.0244
   scf:   47   -91576.6639   -91576.6029   -91576.7058  0.00100 -4.0248
   scf:   48   -91576.6639   -91576.6059   -91576.7089  0.00085 -4.0250
   scf:   49   -91576.6639   -91576.6061   -91576.7091  0.00066 -4.0248
   scf:   50   -91576.6639   -91576.6071   -91576.7100  0.00063 -4.0246
   scf:   51   -91576.6639   -91576.6106   -91576.7135  0.00059 -4.0244
   scf:   52   -91576.6639   -91576.6156   -91576.7186  0.00054 -4.0244
   scf:   53   -91576.6638   -91576.6276   -91576.7305  0.00051 -4.0247
   scf:   54   -91576.6638   -91576.6353   -91576.7383  0.00052 -4.0248
   scf:   55   -91576.6639   -91576.6437   -91576.7467  0.00040 -4.0249
   scf:   56   -91576.6639   -91576.6461   -91576.7491  0.00035 -4.0248
   scf:   57   -91576.6639   -91576.6468   -91576.7497  0.00022 -4.0245
   scf:   58   -91576.6639   -91576.6468   -91576.7498  0.00021 -4.0245
   scf:   59   -91576.6639   -91576.6473   -91576.7502  0.00018 -4.0245
   scf:   60   -91576.6639   -91576.6480   -91576.7509  0.00018 -4.0245
   scf:   61   -91576.6639   -91576.6501   -91576.7531  0.00017 -4.0246
   scf:   62   -91576.6639   -91576.6528   -91576.7557  0.00017 -4.0246
   scf:   63   -91576.6639   -91576.6557   -91576.7586  0.00016 -4.0246
   scf:   64   -91576.6639   -91576.6573   -91576.7603  0.00011 -4.0245
   scf:   65   -91576.6639   -91576.6580   -91576.7609  0.00008 -4.0245

SCF Convergence by dMax criterion
max |DM_out - DM_in|:     0.00008075
SCF cycle converged after   65 iterations

Using DM_out to compute the final energy and forces

siesta: E_KS(eV) =           -91576.6639

siesta: E_KS - E_eggbox =    -91576.6639

siesta: Atomic forces (eV/Ang):
     1   -0.127310   -0.104808   -0.001621
     2   -0.014384   -0.176292   -0.072211
     3   -0.017903   -0.175065   -0.073179
     4    0.129666   -0.169901   -0.055459
     5   -0.135814    0.006853   -0.123302
     6    0.029917    0.012644   -0.142521
     7    0.000075    0.025008   -0.147606
     8    0.147260    0.001163   -0.061363
     9   -0.138115   -0.014180   -0.051063
    10    0.005778   -0.015744   -0.140604
    11   -0.012007   -0.014061   -0.161473
    12    0.113298   -0.012014   -0.124738
    13   -0.100456    0.165316   -0.096098
    14    0.031313    0.163915   -0.090495
    15   -0.002606    0.161038   -0.130846
    16    0.098379    0.128358   -0.007641
    17   -0.125273   -0.199947    0.210841
    18    0.017410   -0.183960    0.227928
    19    0.012795   -0.171319    0.235824
    20    0.153784   -0.117453    0.268768
    21   -0.183968    0.003205    0.185986
    22   -0.013098    0.023528    0.177124
    23   -0.026801    0.023882    0.180434
    24    0.153604    0.001931    0.161311
    25   -0.142611   -0.029718    0.205426
    26    0.015199   -0.003240    0.179524
    27   -0.000332   -0.013707    0.205505
    28    0.182141   -0.002729    0.225570
    29   -0.152538    0.157373    0.155548
    30    0.001877    0.217622    0.154203
    31   -0.035549    0.191703    0.140769
    32    0.130147    0.176109    0.144805
    33   -0.161766   -0.140500    0.113779
    34   -0.002930   -0.140736    0.196251
    35   -0.019799   -0.139652    0.200167
    36    0.124867   -0.142004    0.183594
    37   -0.142953   -0.005701    0.318970
    38    0.044119    0.028873    0.230930
    39    0.007569    0.031619    0.187192
    40    0.147929    0.006309    0.209699
    41   -0.196222    0.011210    0.165752
    42   -0.030844    0.014560    0.232652
    43   -0.009375   -0.002368    0.198295
    44    0.137553    0.022743    0.184707
    45   -0.230869    0.178844    0.218801
    46   -0.007231    0.195598    0.232384
    47    0.037313    0.182774    0.196177
    48    0.216625    0.142207    0.214645
    49   -0.304340   -0.043971   -0.091970
    50    0.318005   -0.323420   -0.457835
    51   -0.027728   -0.187001   -0.265630
    52    0.167329   -0.124397   -0.415428
    53   -0.136884    0.082683   -0.328248
    54    0.052168   -0.008265   -0.198296
    55    0.024085    0.014908   -0.248774
    56    0.195012   -0.260583   -0.226989
    57   -0.187077    0.053373   -0.299155
    58   -0.005393   -0.014148   -0.253518
    59   -0.021188   -0.021598   -0.260138
    60    0.170249   -0.004947   -0.318426
    61   -0.125126    0.082154   -0.268369
    62    0.008985    0.156635   -0.285806
    63    0.038715    0.167923   -0.263137
    64    0.154470    0.094226   -0.372650
    65   -0.291302   -0.193101   -0.403644
    66    0.351569    0.188930    0.607988
    67   -0.267023    0.039150   -0.517872
----------------------------------------
   Tot    0.022390   -0.002163   -0.004556
----------------------------------------
   Max    0.607988
   Res    0.172266    sqrt( Sum f_i^2 / 3N )
----------------------------------------
   Max    0.607988    constrained

Stress-tensor-Voigt (kbar):       11.79       15.56        2.87       -0.07        0.16       -0.14
(Free)E + p*V (eV/cell)   -91621.5380
Target enthalpy (eV/cell)   -91576.7668

siesta: Eigenvalues (eV):
  ik is    eps
   1  1 -23.40 -12.72 -11.79 -11.52 -11.46 -11.38 -11.17 -11.12 -10.95 -10.73
        -10.64 -10.47 -10.42 -10.42 -10.40 -10.38 -10.37 -10.35 -10.33 -10.29
        -10.27 -10.26 -10.24 -10.23 -10.16  -9.92  -9.91  -9.89  -9.86  -9.83
         -9.81  -9.78  -9.78  -9.77  -9.75  -9.75  -9.74  -9.74  -9.70  -9.70
         -9.69  -9.67  -9.65  -9.64  -9.62  -9.61  -9.60  -9.58  -9.56  -9.55
         -9.53  -9.53  -9.51  -9.51  -9.49  -9.46  -9.44  -9.39  -9.39  -9.34
         -9.33  -9.30  -9.28  -9.27  -9.23  -9.22  -9.18  -9.18  -9.16  -9.13
         -9.12  -9.08  -9.05  -9.03  -9.03  -9.00  -8.99  -8.97  -8.96  -8.96
         -8.94  -8.93  -8.92  -8.89  -8.88  -8.85  -8.84  -8.84  -8.82  -8.81
         -8.80  -8.78  -8.77  -8.75  -8.73  -8.73  -8.71  -8.70  -8.70  -8.68
         -8.67  -8.65  -8.65  -8.65  -8.63  -8.63  -8.61  -8.60  -8.59  -8.58
         -8.57  -8.57  -8.56  -8.55  -8.54  -8.52  -8.49  -8.49  -8.48  -8.46
         -8.45  -8.44  -8.44  -8.43  -8.42  -8.40  -8.39  -8.37  -8.37  -8.37
         -8.35  -8.33  -8.33  -8.32  -8.32  -8.30  -8.26  -8.24  -8.23  -8.22
         -8.20  -8.18  -8.18  -8.16  -8.16  -8.15  -8.14  -8.13  -8.11  -8.11
         -8.11  -8.10  -8.08  -8.07  -8.06  -8.05  -8.05  -8.03  -8.02  -8.01
         -8.01  -7.98  -7.97  -7.96  -7.95  -7.94  -7.92  -7.91  -7.91  -7.90
         -7.89  -7.89  -7.87  -7.86  -7.85  -7.85  -7.83  -7.82  -7.81  -7.81
         -7.80  -7.78  -7.78  -7.76  -7.75  -7.71  -7.69  -7.68  -7.67  -7.67
         -7.65  -7.63  -7.61  -7.60  -7.59  -7.56  -7.55  -7.54  -7.53  -7.52
         -7.51  -7.50  -7.50  -7.49  -7.47  -7.45  -7.45  -7.44  -7.42  -7.42
         -7.41  -7.40  -7.38  -7.37  -7.37  -7.36  -7.35  -7.33  -7.32  -7.31
         -7.31  -7.30  -7.29  -7.28  -7.26  -7.25  -7.25  -7.24  -7.24  -7.22
         -7.20  -7.19  -7.18  -7.17  -7.15  -7.13  -7.12  -7.12  -7.11  -7.10
         -7.10  -7.08  -7.07  -7.06  -7.05  -7.03  -7.02  -7.01  -6.98  -6.97
         -6.96  -6.94  -6.93  -6.91  -6.90  -6.89  -6.88  -6.88  -6.87  -6.85
         -6.84  -6.83  -6.81  -6.79  -6.79  -6.78  -6.77  -6.75  -6.71  -6.71
         -6.70  -6.68  -6.67  -6.64  -6.63  -6.60  -6.59  -6.57  -6.57  -6.56
         -6.55  -6.53  -6.52  -6.51  -6.50  -6.50  -6.48  -6.48  -6.46  -6.45
         -6.44  -6.44  -6.44  -6.43  -6.42  -6.41  -6.41  -6.40  -6.39  -6.38
         -6.38  -6.37  -6.36  -6.36  -6.33  -6.33  -6.32  -6.30  -6.30  -6.30
         -6.29  -6.28  -6.28  -6.25  -6.23  -6.23  -6.23  -6.22  -6.21  -6.20
         -6.19  -6.16  -6.13  -6.12  -6.12  -6.11  -6.09  -6.09  -6.07  -6.06
         -6.05  -6.00  -5.93  -5.90  -5.88  -5.88  -5.87  -5.86  -5.85  -5.82
         -5.81  -5.76  -5.73  -5.70  -5.69  -5.47  -5.42  -5.24  -4.88  -4.83
         -4.73  -4.65  -4.46  -4.45  -4.29  -4.11  -3.92  -3.83  -3.78  -3.76
         -3.74  -3.71  -3.65  -3.52  -3.25  -3.22  -3.17  -3.07  -2.98  -2.94
         -2.91  -2.83  -2.74  -2.74  -2.65  -2.61  -2.47  -2.38  -2.22  -2.13
         -2.08  -2.07  -2.05  -1.51  -1.32  -1.28  -1.22  -1.14  -1.11  -1.09
         -0.97  -0.96  -0.89  -0.85  -0.74  -0.69  -0.62  -0.39  -0.32  -0.16
          0.05   0.18   0.41   0.54   0.58   0.88   0.91   0.96   1.04   1.09
          1.14   1.28   1.32   1.39   1.48   1.51   1.63   1.67   1.75   1.85
          1.92   1.99   2.04   2.20   2.27   2.37   2.71   2.80   2.85   2.93
          2.99   3.06   3.12   3.22   3.47   3.52   3.57   3.67   3.83   3.87
          3.89   3.94   3.96   4.01   4.34   4.66   4.69   4.80   4.83   4.86
          4.92   4.93   4.99   5.07   5.08   5.27   5.33   5.44   5.55   5.74
          5.76   5.80   5.92   5.97   6.08   6.11   6.18   6.21   6.27   6.29
          6.33   6.40   6.48   6.54   6.60   6.63   6.69   6.79   6.86   6.91
          6.93   7.16   7.25   7.42   7.58   7.62   7.64   7.67   7.75   7.83
          7.84   7.88   7.88   7.94   8.01   8.13   8.19   8.47   8.54   8.66
          8.70   8.72   8.84   8.87   8.96   8.97   8.98   9.02   9.18   9.31
          9.37   9.43   9.62   9.67   9.74   9.80   9.86   9.99  10.04  10.41
         10.47  10.56  10.63  10.63  10.68  10.69  10.72  10.79  10.80  10.84
         10.88  10.97  11.00  11.01  11.10  11.24  11.34  11.45  11.58  11.63
         11.70  11.81  11.82  11.87  11.91  11.94  12.01  12.07  12.15  12.25
         12.47  12.49  12.55  12.61  12.64  12.74  12.78  12.89  12.98  13.02
         13.10  13.17  13.24  13.31  13.46  13.54  13.68  13.75  13.84  13.91
         14.08  14.59  14.70  14.74  14.77  14.84  14.88  14.98  15.01  15.08
         15.12  15.21  15.23  15.27  15.35  15.47  15.52  15.62  15.66  15.72
         16.02  16.14  16.31  16.48  16.52  16.54  16.58  16.61  16.70  16.86
         16.90  17.00  17.06  17.20  17.23  17.34  17.47  17.56  17.61  17.74
         17.88  18.10  18.15  18.27  18.36  18.38  18.49  18.66  18.78  18.81
         19.04  19.09  19.15  19.20  19.28  19.35  19.50  19.57  19.71  19.90
         19.94  20.07  20.09  20.16  20.20  20.26  20.41  20.58  20.67  20.83
         20.86  20.99  21.20  21.30  21.39  21.54  21.61  21.72  21.80  21.89
         21.92  22.11  22.13  22.16  22.18  22.23  22.28  22.32  22.45  22.54
         22.63  22.73  22.75  22.94  23.01  23.16  23.30  23.33  23.54  23.65
         23.70  23.78  23.83  23.93  23.95  24.00  24.07  24.09  24.17  24.22
         24.23  24.29  24.37  24.54  24.66  24.77  24.79  24.87  24.96  25.03
         25.07  25.13  25.21  25.30  25.37  25.41  25.46  25.54  25.61  25.75
         25.84  25.94  25.97  25.99  26.07  26.14  26.20  26.23  26.25  26.32
         26.37  26.45  26.50  26.54  26.62  26.67  26.72  26.78  26.87  26.94
         26.95  27.05  27.07  27.14  27.15  27.27  27.35  27.43  27.47  27.50
         27.55  27.60  27.72  27.76  27.82  27.84  28.01  28.06  28.09  28.19
         28.28  28.36  28.41  28.52  28.57  28.62  28.73  28.78  28.80  28.89
         29.01  29.08  29.12  29.13  29.25  29.27  29.32  29.35  29.44  29.52
         29.55  29.68  29.75  29.78  29.82  29.97  30.02  30.05  30.16  30.26
         30.29  30.34  30.42  30.56  30.59  30.67  30.71  30.79  30.85  30.92
         30.98  31.03  31.14  31.15  31.19  31.24  31.32  31.34  31.51  31.56
         31.67  31.74  31.81  31.88  31.97  32.00  32.15  32.18  32.25  32.31
         32.34  32.38  32.43  32.45  32.50  32.55  32.56  32.67  32.71  32.82
         32.82  32.89  32.97  33.00  33.08  33.19  33.24  33.28  33.30  33.37
         33.40  33.51  33.52  33.54  33.56  33.65  33.75  33.80  33.88  33.92
         34.00  34.07  34.25  34.26  34.40  34.48  34.55  34.61  34.64  34.82
         34.87  34.91  34.98  35.11  35.22  35.24  35.35  35.46  35.49  35.51
         35.57  35.70  35.80  35.88  35.96  36.02  36.10  36.15  36.18  36.33
         36.48  36.56  36.76  36.80  36.85  36.89  36.97  37.05  37.19  37.28
         37.36  37.42  37.44  37.54  37.64  37.76  37.87  37.97  38.02  38.15
         38.32  38.34  38.37  38.48  38.57  38.61  38.67  38.82  39.05  39.19
         39.27  39.41  39.64  39.79  39.93  40.05  40.23  40.27  40.35  40.46
         40.51  40.53  40.57  40.64  40.77  40.79  40.82  40.99  41.01  41.13
         41.27  41.36  41.38  41.62  41.79  41.86  41.94  42.12  42.13  42.24
         42.36  42.45  42.57  42.66  42.79  42.91  42.99  43.04  43.12  43.24
         43.36  43.45  43.61  43.74  43.85  43.93  43.97  44.04  44.10  44.22
         44.33  44.45  44.53  44.79  44.91  45.03  45.12  45.45  45.75  45.86
         45.99  46.15  46.23  46.25  46.40  46.49  46.60  46.61  46.71  47.09
         47.63  47.73  47.80  47.92  48.06  48.31  48.40  48.52  48.63  48.73
         49.09  49.63  49.74  50.28  50.37  50.63  55.09  56.06  59.62  61.28
         61.66  62.27  71.31
siesta: Fermi energy =      -4.024462 eV

siesta: Program's energy decomposition (eV):
siesta: Ebs     =     -5622.450585
siesta: Eions   =     74448.861464
siesta: Ena     =      3160.942512
siesta: Ekin    =     41784.689492
siesta: Enl     =    -17193.365893
siesta: DEna    =       611.542574
siesta: DUscf   =        55.684870
siesta: DUext   =         0.000000
siesta: Exc     =    -45547.295950
siesta: eta*DQ  =         0.000000
siesta: Emadel  =         0.000000
siesta: Emeta   =         0.000000
siesta: Emolmec =         0.000000
siesta: Ekinion =         0.000000
siesta: Eharris =    -91576.663859
siesta: Etot    =    -91576.663858
siesta: FreeEng =    -91576.766788

siesta: Final energy (eV):
siesta:  Band Struct. =   -5622.450585
siesta:       Kinetic =   41784.689492
siesta:       Hartree = 1200799.751730
siesta:    Ext. field =       0.000000
siesta:   Exch.-corr. =  -45547.295950
siesta:  Ion-electron =-2434003.612598
siesta:       Ion-ion = 1145389.803468
siesta:       Ekinion =       0.000000
siesta:         Total =  -91576.663858

siesta: Atomic forces (eV/Ang):
siesta:      1   -0.127310   -0.104808   -0.001621
siesta:      2   -0.014384   -0.176292   -0.072211
siesta:      3   -0.017903   -0.175065   -0.073179
siesta:      4    0.129666   -0.169901   -0.055459
siesta:      5   -0.135814    0.006853   -0.123302
siesta:      6    0.029917    0.012644   -0.142521
siesta:      7    0.000075    0.025008   -0.147606
siesta:      8    0.147260    0.001163   -0.061363
siesta:      9   -0.138115   -0.014180   -0.051063
siesta:     10    0.005778   -0.015744   -0.140604
siesta:     11   -0.012007   -0.014061   -0.161473
siesta:     12    0.113298   -0.012014   -0.124738
siesta:     13   -0.100456    0.165316   -0.096098
siesta:     14    0.031313    0.163915   -0.090495
siesta:     15   -0.002606    0.161038   -0.130846
siesta:     16    0.098379    0.128358   -0.007641
siesta:     17   -0.125273   -0.199947    0.210841
siesta:     18    0.017410   -0.183960    0.227928
siesta:     19    0.012795   -0.171319    0.235824
siesta:     20    0.153784   -0.117453    0.268768
siesta:     21   -0.183968    0.003205    0.185986
siesta:     22   -0.013098    0.023528    0.177124
siesta:     23   -0.026801    0.023882    0.180434
siesta:     24    0.153604    0.001931    0.161311
siesta:     25   -0.142611   -0.029718    0.205426
siesta:     26    0.015199   -0.003240    0.179524
siesta:     27   -0.000332   -0.013707    0.205505
siesta:     28    0.182141   -0.002729    0.225570
siesta:     29   -0.152538    0.157373    0.155548
siesta:     30    0.001877    0.217622    0.154203
siesta:     31   -0.035549    0.191703    0.140769
siesta:     32    0.130147    0.176109    0.144805
siesta:     33   -0.161766   -0.140500    0.113779
siesta:     34   -0.002930   -0.140736    0.196251
siesta:     35   -0.019799   -0.139652    0.200167
siesta:     36    0.124867   -0.142004    0.183594
siesta:     37   -0.142953   -0.005701    0.318970
siesta:     38    0.044119    0.028873    0.230930
siesta:     39    0.007569    0.031619    0.187192
siesta:     40    0.147929    0.006309    0.209699
siesta:     41   -0.196222    0.011210    0.165752
siesta:     42   -0.030844    0.014560    0.232652
siesta:     43   -0.009375   -0.002368    0.198295
siesta:     44    0.137553    0.022743    0.184707
siesta:     45   -0.230869    0.178844    0.218801
siesta:     46   -0.007231    0.195598    0.232384
siesta:     47    0.037313    0.182774    0.196177
siesta:     48    0.216625    0.142207    0.214645
siesta:     49   -0.304340   -0.043971   -0.091970
siesta:     50    0.318005   -0.323420   -0.457835
siesta:     51   -0.027728   -0.187001   -0.265630
siesta:     52    0.167329   -0.124397   -0.415428
siesta:     53   -0.136884    0.082683   -0.328248
siesta:     54    0.052168   -0.008265   -0.198296
siesta:     55    0.024085    0.014908   -0.248774
siesta:     56    0.195012   -0.260583   -0.226989
siesta:     57   -0.187077    0.053373   -0.299155
siesta:     58   -0.005393   -0.014148   -0.253518
siesta:     59   -0.021188   -0.021598   -0.260138
siesta:     60    0.170249   -0.004947   -0.318426
siesta:     61   -0.125126    0.082154   -0.268369
siesta:     62    0.008985    0.156635   -0.285806
siesta:     63    0.038715    0.167923   -0.263137
siesta:     64    0.154470    0.094226   -0.372650
siesta:     65   -0.291302   -0.193101   -0.403644
siesta:     66    0.351569    0.188930    0.607988
siesta:     67   -0.267023    0.039150   -0.517872
siesta: ----------------------------------------
siesta:    Tot    0.022390   -0.002163   -0.004556

siesta: Stress tensor (static) (eV/Ang**3):
siesta:     0.007359   -0.000042   -0.000088
siesta:    -0.000042    0.009713    0.000099
siesta:    -0.000088    0.000099    0.001790

siesta: Cell volume =       7121.044177 Ang**3

siesta: Pressure (static):
siesta:                Solid            Molecule  Units
siesta:          -0.00006848         -0.00008428  Ry/Bohr**3
siesta:          -0.00628717         -0.00773787  eV/Ang**3
siesta:         -10.07326086        -12.39757646  kBar
(Free)E+ p_basis*V_orbitals  =      -91504.089592
(Free)Eharris+ p_basis*V_orbitals  =      -91504.089593

siesta: Electric dipole (a.u.)  =    0.000000   -0.000000    1.446639
siesta: Electric dipole (Debye) =    0.000000   -0.000000    3.676992
>> End of run:  10-APR-2024   4:48:39
Job completed
