Siesta Version: siesta-4.0--530
Architecture  : x86_64-unknown-linux-gnu--unknown
Compiler flags: /opt/spack/opt/spack/linux-centos7-x86_64/gcc-8.3.0/openmpi-3.1.3-zvzp4an3k2mmb7andyregxqllnueyg4jo/bin/mpif90 -g -O2
PP flags      : -DMPI -DFC_HAVE_FLUSH -DFC_HAVE_ABORT -DCDF 
PARALLEL version
NetCDF support

* Running on   32 nodes in parallel
>> Start of run:   9-APR-2024  19:58:58

                           ***********************       
                           *  WELCOME TO SIESTA  *       
                           ***********************       

reinit: Reading from standard input
************************** Dump of input data file ****************************
SystemName	geometry-15
SystemLabel	geometry-15
DM.MixingWeight	0.03
DM.NumberPulay	3
DM.Tolerance	1.d-4
DM.UseSaveDM	F
ElectronicTemperature	50 meV
MD.MaxForceTol	0.04 eV/Ang
MD.Steps	0
MD.TypeOfRun	CG
MD.UseSaveXV	F
MaxSCFIterations	500
MinSCFIterations	0
SCF.MustConverge	T
SaveDeltaRho	F
SaveElectrostaticPotential	F
SaveHS	F
SaveRho	F
SaveTotalPotential	F
SolutionMethod	diagon
Spin	non-polarized
Spin.Total	0
UseSaveData	F
WriteCoorStep	F
WriteCoorXmol	F
WriteEigenvalues	T
WriteForces	T
WriteHirshfeldPop	F
WriteKbands	F
WriteKpoints	F
WriteMDXmol	T
WriteMDhistory	F
WriteMullikenPop	0
WriteVoronoiPop	F
WriteWaveFunctions	F
SCFMustConverge	True
Spin     	non-polarized
XC.functional	GGA
XC.authors	PBE
MeshCutoff	9523.985108528535	eV
PAO.EnergyShift	0.1	eV
NumberOfSpecies	5
NumberOfAtoms	67
%block ChemicalSpecieslabel
    1 1 H.1
    2 8 O.2
    3 79 Au.gga.3
    4 79 Au.gga.4
    5 79 Au.gga.5
%endblock ChemicalSpecieslabel
%block PAO.Basis
H.1 2 0.46527
            n=1 0 2 E 99.93138 2.59932
            4.20357 1.84463
            n=2 1 1 E 24.56504 2.20231
            3.52816
O.2 3 -0.24233
            n=2 0 2 E 23.36061 3.39721
            4.50769 2.64066
            n=2 1 2 E 2.78334 5.14253
            6.14996 2.59356
            n=3 2 1 E 63.98188 0.16104
            3.54403
Au.gga.4 2
            n=6 0 2 P 1
            7.24700 5.71500
            n=5 2 2
            5.10700 2.83800
Au.gga.5 2
            n=6 0 2 P 1
            9.07500 5.78700
            n=5 2 2
            6.55700 2.87400
%endblock PAO.Basis
%block PAO.BasisSizes
    Au.gga.3	DZP
%endblock PAO.BasisSizes
LatticeConstant	1.0 Ang
%block LatticeVectors
    11.975725345373620     0.000000000000000     0.000000000000000
    0.000000000000000     10.371282377926580     0.000000000000000
    0.000000000000000     0.000000000000000     57.333623994331909
%endblock LatticeVectors
AtomicCoordinatesFormat  Ang
%block AtomicCoordinatesAndAtomicSpecies
     0.014801925     -0.064112751     24.812324028 5
     2.970021239     -0.074420794     24.841392752 5
     5.935943102     -0.083780093     24.862103672 5
     8.918720537     -0.064586236     24.865418022 5
     1.497661594      2.491797573     24.808982268 5
     4.456512537      2.496491474     24.839680544 5
     7.433272770      2.498790529     24.887345433 5
    10.402615974      2.492979425     24.828936657 5
     0.018447303      5.063556731     24.878626861 5
     2.972060469      5.073622938     24.838839128 5
     5.944260233      5.071340535     24.855729544 5
     8.911094998      5.070065511     24.967986272 5
     1.517313116      7.648656980     24.889787407 5
     4.462368258      7.650960534     24.827877922 5
     7.406305245      7.651739343     24.962473228 5
    10.396057243      7.647926750     24.919553727 5
     1.500452098      0.818617958     27.417401341 5
     4.449159898      0.817555485     27.398918635 5
     7.413997682      0.824866669     27.409953910 5
    10.394551932      0.830412171     27.376760675 5
     0.008450576      3.372567442     27.379207754 5
     2.962231466      3.384585726     27.361776762 5
     5.937231820      3.384306289     27.379760430 5
     8.903219720      3.387263969     27.462001345 5
     1.504006512      5.959728905     27.402762910 5
     4.439825798      5.988911983     27.347081185 5
     7.419300871      5.973475875     27.452522575 5
    10.402646397      5.947031767     27.433496274 5
     0.053388711      8.554898014     27.348312829 5
     2.955301267      8.558315359     27.461629880 5
     5.895411925      8.556315715     27.473440542 5
     8.910602284      8.549026279     27.413597561 5
    -0.004817984      1.712070975     29.869534412 3
     2.948979892      1.719356061     29.904399894 3
     5.944542063      1.708101294     29.860877886 3
     8.920937284      1.684101098     29.916215494 3
     1.469673193      4.279837409     29.864334633 3
     4.449888028      4.305669416     29.780242228 3
     7.406019504      4.261137010     29.928999583 3
    10.373719294      4.250067539     29.927266732 3
    -0.012192239      6.848356004     29.818920906 3
     2.987060751      6.860749428     29.865832945 3
     5.949349931      6.830334100     29.897050841 3
     8.904317824      6.819216237     29.917930988 3
     1.441496029      9.449106277     30.005731846 3
     4.426819572      9.460635363     29.944867728 3
     7.459120172      9.393797090     29.890329374 3
    10.396072501      9.392319384     29.784564312 3
    -0.293706584     -0.053721037     32.298598773 3
     3.240653694      0.055173310     32.523828448 3
     6.042220932      0.019474246     32.417337687 3
     8.748526000      0.088243663     32.841454056 3
     1.464435877      2.874623553     32.356845725 3
     4.479707415      2.714700122     32.345558439 3
     7.385640271      2.635504585     32.555089663 3
    10.305471631      2.641107924     32.692993098 3
    -0.125374625      5.218475899     32.469133095 3
     3.011329342      5.300264667     32.463647439 3
     5.947500576      5.228542982     32.576701327 3
     8.827961124      5.161672864     32.653672323 3
     1.413469063      7.748630918     32.390474478 3
     4.438829176      7.766454692     32.516248518 3
     7.425984356      7.766080779     32.587541945 3
    10.319722092      7.677889059     32.588475926 3
     1.685409741      1.077718721     33.780024260 2
     1.934828906      1.319074806     34.656934735 1
    -1.030554152      1.080639421     33.592971979 1
%endblock AtomicCoordinatesAndAtomicSpecies
%block DM.InitSpin
%endblock DM.InitSpin
DM.UseSaveDM	True
#KPoint grid
%block kgrid_Monkhorst_Pack
     1       0       0  0.0
     0       1       0  0.0
     0       0       1  0.0
%endblock kgrid_Monkhorst_Pack
************************** End of input data file *****************************
*** WARNING:  FDF module: fdf_read: block DM.InitSpin is empty...

reinit: -----------------------------------------------------------------------
reinit: System Name: geometry-15
reinit: -----------------------------------------------------------------------
reinit: System Label: geometry-15                                                 
reinit: -----------------------------------------------------------------------

initatom: Reading input for the pseudopotentials and atomic orbitals ----------
 Species number:            1  Label: H.1 Atomic number:           1
 Species number:            2  Label: O.2 Atomic number:           8
 Species number:            3  Label: Au.gga.3 Atomic number:          79
 Species number:            4  Label: Au.gga.4 Atomic number:          79
 Species number:            5  Label: Au.gga.5 Atomic number:          79
Ground state valence configuration:   1s01
Reading pseudopotential information in formatted form from H.1.psf

Valence configuration for pseudopotential generation:
1s( 1.00) rc: 1.25
2p( 0.00) rc: 1.25
3d( 0.00) rc: 1.25
4f( 0.00) rc: 1.25
Ground state valence configuration:   2s02  2p04
Reading pseudopotential information in formatted form from O.2.psf

Valence configuration for pseudopotential generation:
2s( 2.00) rc: 1.14
2p( 4.00) rc: 1.14
3d( 0.00) rc: 1.14
4f( 0.00) rc: 1.14
Ground state valence configuration:   6s01  5d10
Reading pseudopotential information in formatted form from Au.gga.3.psf

Pseudopotential generated from a relativistic atomic calculation
There are spin-orbit pseudopotentials available
Spin-orbit interaction is not included in this calculation

Valence configuration for pseudopotential generation:
6s( 1.00) rc: 2.32
6p( 0.50) rc: 2.29
5d( 9.50) rc: 2.24
5f( 0.00) rc: 2.00
Ground state valence configuration:   6s01  5d10
Reading pseudopotential information in formatted form from Au.gga.4.psf

Pseudopotential generated from a relativistic atomic calculation
There are spin-orbit pseudopotentials available
Spin-orbit interaction is not included in this calculation

Valence configuration for pseudopotential generation:
6s( 1.00) rc: 2.32
6p( 0.50) rc: 2.29
5d( 9.50) rc: 2.24
5f( 0.00) rc: 2.00
Ground state valence configuration:   6s01  5d10
Reading pseudopotential information in formatted form from Au.gga.5.psf

Pseudopotential generated from a relativistic atomic calculation
There are spin-orbit pseudopotentials available
Spin-orbit interaction is not included in this calculation

Valence configuration for pseudopotential generation:
6s( 1.00) rc: 2.32
6p( 0.50) rc: 2.29
5d( 9.50) rc: 2.24
5f( 0.00) rc: 2.00
resizes: Read basis size for species Au.gga.3 = dzp                 
For H.1, standard SIESTA heuristics set lmxkb to 2
 (one more than the basis l, including polarization orbitals).
Use PS.lmax or PS.KBprojectors blocks to override.
For O.2, standard SIESTA heuristics set lmxkb to 3
 (one more than the basis l, including polarization orbitals).
Use PS.lmax or PS.KBprojectors blocks to override.
For Au.gga.3, standard SIESTA heuristics set lmxkb to 3
 (one more than the basis l, including polarization orbitals).
Use PS.lmax or PS.KBprojectors blocks to override.
For Au.gga.4, standard SIESTA heuristics set lmxkb to 3
 (one more than the basis l, including polarization orbitals).
Use PS.lmax or PS.KBprojectors blocks to override.
 Warning: Empty PAO shell. l =           1
 Will have a KB projector anyway...
For Au.gga.5, standard SIESTA heuristics set lmxkb to 3
 (one more than the basis l, including polarization orbitals).
Use PS.lmax or PS.KBprojectors blocks to override.
 Warning: Empty PAO shell. l =           1
 Will have a KB projector anyway...

<basis_specs>
===============================================================================
H.1                  Z=   1    Mass=  1.0100        Charge= 0.46527    
Lmxo=1 Lmxkb= 2    BasisType=split      Semic=F
L=0  Nsemic=0  Cnfigmx=1
          n=1  nzeta=2  polorb=0
            splnorm:   0.15000    
               vcte:    99.931    
               rinn:    2.5993    
               qcoe:    0.0000    
               qyuk:    0.0000    
               qwid:   0.10000E-01
                rcs:    4.2036      1.8446    
            lambdas:    1.0000      1.0000    
L=1  Nsemic=0  Cnfigmx=2
          n=1  nzeta=1  polorb=0
            splnorm:   0.15000    
               vcte:    24.565    
               rinn:    2.2023    
               qcoe:    0.0000    
               qyuk:    0.0000    
               qwid:   0.10000E-01
                rcs:    3.5282    
            lambdas:    1.0000    
-------------------------------------------------------------------------------
L=0  Nkbl=1  erefs: 0.17977+309
L=1  Nkbl=1  erefs: 0.17977+309
L=2  Nkbl=1  erefs: 0.17977+309
===============================================================================
</basis_specs>

atom: Called for H.1                   (Z =   1)

read_vps: Pseudopotential generation method:
read_vps: ATM3      Troullier-Martins                       
Total valence charge:    1.00000

xc_check: Exchange-correlation functional:
xc_check: GGA Perdew, Burke & Ernzerhof 1996
V l=0 = -2*Zval/r beyond r=  1.2343
V l=1 = -2*Zval/r beyond r=  1.2189
V l=2 = -2*Zval/r beyond r=  1.2189
All V_l potentials equal beyond r=  1.2343
This should be close to max(r_c) in ps generation
All pots = -2*Zval/r beyond r=  1.2343

VLOCAL1: 99.0% of the norm of Vloc inside     28.493 Ry
VLOCAL1: 99.9% of the norm of Vloc inside     64.935 Ry
atom: Maximum radius for 4*pi*r*r*local-pseudopot. charge    1.45251
atom: Maximum radius for r*vlocal+2*Zval:    1.21892
GHOST: No ghost state for L =  0
GHOST: No ghost state for L =  1
GHOST: No ghost state for L =  2

KBgen: Kleinman-Bylander projectors: 
   l= 0   rc=  1.364359   el= -0.477200   Ekb= -2.021939   kbcos= -0.344793
   l= 1   rc=  1.434438   el=  0.001076   Ekb= -0.443447   kbcos= -0.022843
   l= 2   rc=  1.470814   el=  0.002010   Ekb= -0.140543   kbcos= -0.002863

KBgen: Total number of  Kleinman-Bylander projectors:    9
atom: -------------------------------------------------------------------------

atom: SANKEY-TYPE ORBITALS:
atom: Selected multiple-zeta basis: split     

atom: basis set generated (by rescaling the valence charge)
atom: for a cation of charge   0.4653

SPLIT: Orbitals with angular momentum L= 0

SPLIT: Basis orbitals for state 1s

   izeta = 1
                 lambda =    1.000000
                     rc =    4.260636
                 energy =   -0.870244
                kinetic =    1.359204
    potential(screened) =   -2.229448
       potential(ionic) =   -2.289196

   izeta = 2
                 rmatch =    1.865767
              splitnorm =    0.575659
                 energy =    0.485405
                kinetic =    4.355632
    potential(screened) =   -3.870227
       potential(ionic) =   -3.839117

SPLIT: Orbitals with angular momentum L= 1

SPLIT: Basis orbitals for state 2p

   izeta = 1
                 lambda =    1.000000
                     rc =    3.576223
                 energy =    0.828629
                kinetic =    2.006518
    potential(screened) =   -1.177889
       potential(ionic) =   -1.299048
atom: Total number of Sankey-type orbitals:  5

atm_pop: Valence configuration (for local Pseudopot. screening):
 1s( 1.00)                                                            
 2p( 0.00)                                                            
Vna: chval, zval:    1.00000   1.00000

Vna:  Cut-off radius for the neutral-atom potential:   4.260636

atom: _________________________________________________________________________

<basis_specs>
===============================================================================
O.2                  Z=   8    Mass=  16.000        Charge=-0.24233    
Lmxo=2 Lmxkb= 3    BasisType=split      Semic=F
L=0  Nsemic=0  Cnfigmx=2
          n=1  nzeta=2  polorb=0
            splnorm:   0.15000    
               vcte:    23.361    
               rinn:    3.3972    
               qcoe:    0.0000    
               qyuk:    0.0000    
               qwid:   0.10000E-01
                rcs:    4.5077      2.6407    
            lambdas:    1.0000      1.0000    
L=1  Nsemic=0  Cnfigmx=2
          n=1  nzeta=2  polorb=0
            splnorm:   0.15000    
               vcte:    2.7833    
               rinn:    5.1425    
               qcoe:    0.0000    
               qyuk:    0.0000    
               qwid:   0.10000E-01
                rcs:    6.1500      2.5936    
            lambdas:    1.0000      1.0000    
L=2  Nsemic=0  Cnfigmx=3
          n=1  nzeta=1  polorb=0
            splnorm:   0.15000    
               vcte:    63.982    
               rinn:   0.16104    
               qcoe:    0.0000    
               qyuk:    0.0000    
               qwid:   0.10000E-01
                rcs:    3.5440    
            lambdas:    1.0000    
-------------------------------------------------------------------------------
L=0  Nkbl=1  erefs: 0.17977+309
L=1  Nkbl=1  erefs: 0.17977+309
L=2  Nkbl=1  erefs: 0.17977+309
L=3  Nkbl=1  erefs: 0.17977+309
===============================================================================
</basis_specs>

atom: Called for O.2                   (Z =   8)

read_vps: Pseudopotential generation method:
read_vps:  ATM3      Troullier-Martins                      
Total valence charge:    6.00000

read_vps: Pseudopotential includes a core correction:
read_vps: Pseudo-core for xc-correction

xc_check: Exchange-correlation functional:
xc_check: GGA Perdew, Burke & Ernzerhof 1996
V l=0 = -2*Zval/r beyond r=  1.1278
V l=1 = -2*Zval/r beyond r=  1.1278
V l=2 = -2*Zval/r beyond r=  1.1278
V l=3 = -2*Zval/r beyond r=  1.1278
All V_l potentials equal beyond r=  1.1278
This should be close to max(r_c) in ps generation
All pots = -2*Zval/r beyond r=  1.1278

VLOCAL1: 99.0% of the norm of Vloc inside     34.126 Ry
VLOCAL1: 99.9% of the norm of Vloc inside     77.774 Ry
atom: Maximum radius for 4*pi*r*r*local-pseudopot. charge    1.37759
atom: Maximum radius for r*vlocal+2*Zval:    1.18566
GHOST: No ghost state for L =  0
GHOST: No ghost state for L =  1
GHOST: No ghost state for L =  2
GHOST: No ghost state for L =  3

KBgen: Kleinman-Bylander projectors: 
   l= 0   rc=  1.262145   el= -1.757696   Ekb=  9.224596   kbcos=  0.328556
   l= 1   rc=  1.262145   el= -0.664256   Ekb= -7.912306   kbcos= -0.392969
   l= 2   rc=  1.343567   el=  0.002031   Ekb= -1.926788   kbcos= -0.003514
   l= 3   rc=  1.394919   el=  0.003153   Ekb= -0.739398   kbcos= -0.000358

KBgen: Total number of  Kleinman-Bylander projectors:   16
atom: -------------------------------------------------------------------------

atom: SANKEY-TYPE ORBITALS:
atom: Selected multiple-zeta basis: split     

atom: basis set generated (by rescaling the valence charge)
atom: for an anion of charge  -0.2423

SPLIT: Orbitals with angular momentum L= 0

SPLIT: Basis orbitals for state 2s

   izeta = 1
                 lambda =    1.000000
                     rc =    4.574469
                 energy =   -1.754696
                kinetic =    1.490911
    potential(screened) =   -3.245607
       potential(ionic) =  -11.056427

   izeta = 2
                 rmatch =    2.639108
              splitnorm =    0.147030
                 energy =   -1.549984
                kinetic =    2.329575
    potential(screened) =   -3.879559
       potential(ionic) =  -12.330999

SPLIT: Orbitals with angular momentum L= 1

SPLIT: Basis orbitals for state 2p

   izeta = 1
                 lambda =    1.000000
                     rc =    6.174996
                 energy =   -0.657402
                kinetic =    4.283935
    potential(screened) =   -4.941337
       potential(ionic) =  -12.290306

   izeta = 2
                 rmatch =    2.639108
              splitnorm =    0.214868
                 energy =   -0.410830
                kinetic =    7.128181
    potential(screened) =   -7.539011
       potential(ionic) =  -16.115673

SPLIT: Orbitals with angular momentum L= 2

SPLIT: Basis orbitals for state 3d

   izeta = 1
                 lambda =    1.000000
                     rc =    3.562532
                 energy =    3.658839
                kinetic =    6.488139
    potential(screened) =   -2.829300
       potential(ionic) =  -10.001503
atom: Total number of Sankey-type orbitals: 13

atm_pop: Valence configuration (for local Pseudopot. screening):
 2s( 2.00)                                                            
 2p( 4.00)                                                            
 3d( 0.00)                                                            
Vna: chval, zval:    6.00000   6.00000

Vna:  Cut-off radius for the neutral-atom potential:   6.174996
comcore: Pseudo-core radius Rcore=  1.377587

atom: _________________________________________________________________________

<basis_specs>
===============================================================================
Au.gga.3             Z=  79    Mass=  196.97        Charge= 0.17977+309
Lmxo=2 Lmxkb= 3    BasisType=split      Semic=F
L=0  Nsemic=0  Cnfigmx=6
          n=1  nzeta=2  polorb=1
            splnorm:   0.15000    
               vcte:    0.0000    
               rinn:    0.0000    
               qcoe:    0.0000    
               qyuk:    0.0000    
               qwid:   0.10000E-01
                rcs:    0.0000      0.0000    
            lambdas:    1.0000      1.0000    
L=1  Nsemic=0  Cnfigmx=6
L=2  Nsemic=0  Cnfigmx=5
          n=1  nzeta=2  polorb=0
            splnorm:   0.15000    
               vcte:    0.0000    
               rinn:    0.0000    
               qcoe:    0.0000    
               qyuk:    0.0000    
               qwid:   0.10000E-01
                rcs:    0.0000      0.0000    
            lambdas:    1.0000      1.0000    
-------------------------------------------------------------------------------
L=0  Nkbl=1  erefs: 0.17977+309
L=1  Nkbl=1  erefs: 0.17977+309
L=2  Nkbl=1  erefs: 0.17977+309
L=3  Nkbl=1  erefs: 0.17977+309
===============================================================================
</basis_specs>

atom: Called for Au.gga.3              (Z =  79)

read_vps: Pseudopotential generation method:
read_vps: ATM3      Troullier-Martins                       
Total valence charge:   11.00000

read_vps: Pseudopotential includes a core correction:
read_vps: Pseudo-core for xc-correction

xc_check: Exchange-correlation functional:
xc_check: GGA Perdew, Burke & Ernzerhof 1996
V l=0 = -2*Zval/r beyond r=  2.9833
V l=1 = -2*Zval/r beyond r=  2.9833
V l=2 = -2*Zval/r beyond r=  2.9833
V l=3 = -2*Zval/r beyond r=  2.9833
All V_l potentials equal beyond r=  2.2946
This should be close to max(r_c) in ps generation
All pots = -2*Zval/r beyond r=  2.9833
Using large-core scheme for Vlocal

atom: Estimated core radius    2.98333
atom: Maximum radius for 4*pi*r*r*local-pseudopot. charge    3.25614
atom: Maximum radius for r*vlocal+2*Zval:    3.02086
GHOST: No ghost state for L =  0
GHOST: No ghost state for L =  1
GHOST: No ghost state for L =  2
GHOST: No ghost state for L =  3

KBgen: Kleinman-Bylander projectors: 
   l= 0   rc=  2.382235   el= -0.513519   Ekb=  5.087925   kbcos=  0.278237
   l= 1   rc=  2.382235   el= -0.109829   Ekb=  2.881759   kbcos=  0.226107
   l= 2   rc=  2.382235   el= -0.663286   Ekb= -4.434057   kbcos= -0.694733
   l= 3   rc=  2.382235   el=  0.003083   Ekb= -2.571105   kbcos= -0.013009

KBgen: Total number of  Kleinman-Bylander projectors:   16
atom: -------------------------------------------------------------------------

atom: SANKEY-TYPE ORBITALS:
atom: Selected multiple-zeta basis: split     

SPLIT: Orbitals with angular momentum L= 0

SPLIT: Basis orbitals for state 6s

SPLIT: PAO cut-off radius determined from an
SPLIT: energy shift=  0.007350 Ry

   izeta = 1
                 lambda =    1.000000
                     rc =    6.723087
                 energy =   -0.506600
                kinetic =    0.398622
    potential(screened) =   -0.905223
       potential(ionic) =   -8.548368

   izeta = 2
                 rmatch =    5.643738
              splitnorm =    0.150000
                 energy =   -0.431591
                kinetic =    0.653484
    potential(screened) =   -1.085075
       potential(ionic) =   -9.245123

SPLIT: Orbitals with angular momentum L= 2

SPLIT: Basis orbitals for state 5d

SPLIT: PAO cut-off radius determined from an
SPLIT: energy shift=  0.007350 Ry

   izeta = 1
                 lambda =    1.000000
                     rc =    4.737670
                 energy =   -0.656650
                kinetic =    5.068938
    potential(screened) =   -5.725588
       potential(ionic) =  -16.071180

   izeta = 2
                 rmatch =    2.802581
              splitnorm =    0.150000
                 energy =   -0.349126
                kinetic =    7.097014
    potential(screened) =   -7.446140
       potential(ionic) =  -18.531204

POLgen: Perturbative polarization orbital with L=  1

POLgen: Polarization orbital for state 6s

   izeta = 1
                     rc =    6.723087
                 energy =   -0.153149
                kinetic =    0.703267
    potential(screened) =   -0.856416
       potential(ionic) =   -8.074316
atom: Total number of Sankey-type orbitals: 15

atm_pop: Valence configuration (for local Pseudopot. screening):
 6s( 1.00)                                                            
 6p( 0.00)                                                            
 5d(10.00)                                                            
Vna: chval, zval:   11.00000  11.00000

Vna:  Cut-off radius for the neutral-atom potential:   6.723087
comcore: Pseudo-core radius Rcore=  3.977066

atom: _________________________________________________________________________

<basis_specs>
===============================================================================
Au.gga.4             Z=  79    Mass=  196.97        Charge= 0.17977+309
Lmxo=2 Lmxkb= 3    BasisType=split      Semic=F
L=0  Nsemic=0  Cnfigmx=6
          n=1  nzeta=2  polorb=1
            splnorm:   0.15000    
               vcte:    0.0000    
               rinn:    0.0000    
               qcoe:    0.0000    
               qyuk:    0.0000    
               qwid:   0.10000E-01
                rcs:    7.2470      5.7150    
            lambdas:    1.0000      1.0000    
L=1  Nsemic=0  Cnfigmx=6
L=2  Nsemic=0  Cnfigmx=5
          n=1  nzeta=2  polorb=0
            splnorm:   0.15000    
               vcte:    0.0000    
               rinn:    0.0000    
               qcoe:    0.0000    
               qyuk:    0.0000    
               qwid:   0.10000E-01
                rcs:    5.1070      2.8380    
            lambdas:    1.0000      1.0000    
-------------------------------------------------------------------------------
L=0  Nkbl=1  erefs: 0.17977+309
L=1  Nkbl=1  erefs: 0.17977+309
L=2  Nkbl=1  erefs: 0.17977+309
L=3  Nkbl=1  erefs: 0.17977+309
===============================================================================
</basis_specs>

atom: Called for Au.gga.4              (Z =  79)

read_vps: Pseudopotential generation method:
read_vps: ATM3      Troullier-Martins                       
Total valence charge:   11.00000

read_vps: Pseudopotential includes a core correction:
read_vps: Pseudo-core for xc-correction

xc_check: Exchange-correlation functional:
xc_check: GGA Perdew, Burke & Ernzerhof 1996
V l=0 = -2*Zval/r beyond r=  2.9833
V l=1 = -2*Zval/r beyond r=  2.9833
V l=2 = -2*Zval/r beyond r=  2.9833
V l=3 = -2*Zval/r beyond r=  2.9833
All V_l potentials equal beyond r=  2.2946
This should be close to max(r_c) in ps generation
All pots = -2*Zval/r beyond r=  2.9833
Using large-core scheme for Vlocal

atom: Estimated core radius    2.98333
atom: Maximum radius for 4*pi*r*r*local-pseudopot. charge    3.25614
atom: Maximum radius for r*vlocal+2*Zval:    3.02086
GHOST: No ghost state for L =  0
GHOST: No ghost state for L =  1
GHOST: No ghost state for L =  2
GHOST: No ghost state for L =  3

KBgen: Kleinman-Bylander projectors: 
   l= 0   rc=  2.382235   el= -0.513519   Ekb=  5.087925   kbcos=  0.278237
   l= 1   rc=  2.382235   el= -0.109829   Ekb=  2.881759   kbcos=  0.226107
   l= 2   rc=  2.382235   el= -0.663286   Ekb= -4.434057   kbcos= -0.694733
   l= 3   rc=  2.382235   el=  0.003083   Ekb= -2.571105   kbcos= -0.013009

KBgen: Total number of  Kleinman-Bylander projectors:   16
atom: -------------------------------------------------------------------------

atom: SANKEY-TYPE ORBITALS:
atom: Selected multiple-zeta basis: split     

SPLIT: Orbitals with angular momentum L= 0

SPLIT: Basis orbitals for state 6s

   izeta = 1
                 lambda =    1.000000
                     rc =    7.246712
                 energy =   -0.510007
                kinetic =    0.385781
    potential(screened) =   -0.895788
       potential(ionic) =   -8.490322

   izeta = 2
                 rmatch =    5.786611
              splitnorm =    0.137361
                 energy =   -0.445151
                kinetic =    0.623150
    potential(screened) =   -1.068301
       potential(ionic) =   -9.190366

SPLIT: Orbitals with angular momentum L= 2

SPLIT: Basis orbitals for state 5d

   izeta = 1
                 lambda =    1.000000
                     rc =    5.106662
                 energy =   -0.659762
                kinetic =    5.025587
    potential(screened) =   -5.685349
       potential(ionic) =  -16.000690

   izeta = 2
                 rmatch =    2.873530
              splitnorm =    0.141056
                 energy =   -0.387690
                kinetic =    6.936955
    potential(screened) =   -7.324646
       potential(ionic) =  -18.374036

POLgen: Perturbative polarization orbital with L=  1

POLgen: Polarization orbital for state 6s

   izeta = 1
                     rc =    7.246712
                 energy =   -0.163164
                kinetic =    0.676967
    potential(screened) =   -0.840131
       potential(ionic) =   -7.980465
atom: Total number of Sankey-type orbitals: 15

atm_pop: Valence configuration (for local Pseudopot. screening):
 6s( 1.00)                                                            
 6p( 0.00)                                                            
 5d(10.00)                                                            
Vna: chval, zval:   11.00000  11.00000

Vna:  Cut-off radius for the neutral-atom potential:   7.246712
comcore: Pseudo-core radius Rcore=  3.977066

atom: _________________________________________________________________________

<basis_specs>
===============================================================================
Au.gga.5             Z=  79    Mass=  196.97        Charge= 0.17977+309
Lmxo=2 Lmxkb= 3    BasisType=split      Semic=F
L=0  Nsemic=0  Cnfigmx=6
          n=1  nzeta=2  polorb=1
            splnorm:   0.15000    
               vcte:    0.0000    
               rinn:    0.0000    
               qcoe:    0.0000    
               qyuk:    0.0000    
               qwid:   0.10000E-01
                rcs:    9.0750      5.7870    
            lambdas:    1.0000      1.0000    
L=1  Nsemic=0  Cnfigmx=6
L=2  Nsemic=0  Cnfigmx=5
          n=1  nzeta=2  polorb=0
            splnorm:   0.15000    
               vcte:    0.0000    
               rinn:    0.0000    
               qcoe:    0.0000    
               qyuk:    0.0000    
               qwid:   0.10000E-01
                rcs:    6.5570      2.8740    
            lambdas:    1.0000      1.0000    
-------------------------------------------------------------------------------
L=0  Nkbl=1  erefs: 0.17977+309
L=1  Nkbl=1  erefs: 0.17977+309
L=2  Nkbl=1  erefs: 0.17977+309
L=3  Nkbl=1  erefs: 0.17977+309
===============================================================================
</basis_specs>

atom: Called for Au.gga.5              (Z =  79)

read_vps: Pseudopotential generation method:
read_vps: ATM3      Troullier-Martins                       
Total valence charge:   11.00000

read_vps: Pseudopotential includes a core correction:
read_vps: Pseudo-core for xc-correction

xc_check: Exchange-correlation functional:
xc_check: GGA Perdew, Burke & Ernzerhof 1996
V l=0 = -2*Zval/r beyond r=  2.9833
V l=1 = -2*Zval/r beyond r=  2.9833
V l=2 = -2*Zval/r beyond r=  2.9833
V l=3 = -2*Zval/r beyond r=  2.9833
All V_l potentials equal beyond r=  2.2946
This should be close to max(r_c) in ps generation
All pots = -2*Zval/r beyond r=  2.9833
Using large-core scheme for Vlocal

atom: Estimated core radius    2.98333
atom: Maximum radius for 4*pi*r*r*local-pseudopot. charge    3.25614
atom: Maximum radius for r*vlocal+2*Zval:    3.02086
GHOST: No ghost state for L =  0
GHOST: No ghost state for L =  1
GHOST: No ghost state for L =  2
GHOST: No ghost state for L =  3

KBgen: Kleinman-Bylander projectors: 
   l= 0   rc=  2.382235   el= -0.513519   Ekb=  5.087925   kbcos=  0.278237
   l= 1   rc=  2.382235   el= -0.109829   Ekb=  2.881759   kbcos=  0.226107
   l= 2   rc=  2.382235   el= -0.663286   Ekb= -4.434057   kbcos= -0.694733
   l= 3   rc=  2.382235   el=  0.003083   Ekb= -2.571105   kbcos= -0.013009

KBgen: Total number of  Kleinman-Bylander projectors:   16
atom: -------------------------------------------------------------------------

atom: SANKEY-TYPE ORBITALS:
atom: Selected multiple-zeta basis: split     

SPLIT: Orbitals with angular momentum L= 0

SPLIT: Basis orbitals for state 6s

   izeta = 1
                 lambda =    1.000000
                     rc =    9.075230
                 energy =   -0.513232
                kinetic =    0.370471
    potential(screened) =   -0.883703
       potential(ionic) =   -8.414024

   izeta = 2
                 rmatch =    5.786611
              splitnorm =    0.148012
                 energy =   -0.446211
                kinetic =    0.620438
    potential(screened) =   -1.066649
       potential(ionic) =   -9.184844

SPLIT: Orbitals with angular momentum L= 2

SPLIT: Basis orbitals for state 5d

   izeta = 1
                 lambda =    1.000000
                     rc =    6.557093
                 energy =   -0.663050
                kinetic =    4.966809
    potential(screened) =   -5.629858
       potential(ionic) =  -15.898967

   izeta = 2
                 rmatch =    2.873530
              splitnorm =    0.149391
                 energy =   -0.387750
                kinetic =    6.936394
    potential(screened) =   -7.324143
       potential(ionic) =  -18.373423

POLgen: Perturbative polarization orbital with L=  1

POLgen: Polarization orbital for state 6s

   izeta = 1
                     rc =    9.075230
                 energy =   -0.175654
                kinetic =    0.640919
    potential(screened) =   -0.816572
       potential(ionic) =   -7.839035
atom: Total number of Sankey-type orbitals: 15

atm_pop: Valence configuration (for local Pseudopot. screening):
 6s( 1.00)                                                            
 6p( 0.00)                                                            
 5d(10.00)                                                            
Vna: chval, zval:   11.00000  11.00000

Vna:  Cut-off radius for the neutral-atom potential:   9.075230
comcore: Pseudo-core radius Rcore=  3.977066

atom: _________________________________________________________________________

prinput: Basis input ----------------------------------------------------------

PAO.BasisType split     

%block ChemicalSpeciesLabel
    1    1 H.1                     # Species index, atomic number, species label
    2    8 O.2                     # Species index, atomic number, species label
    3   79 Au.gga.3                # Species index, atomic number, species label
    4   79 Au.gga.4                # Species index, atomic number, species label
    5   79 Au.gga.5                # Species index, atomic number, species label
%endblock ChemicalSpeciesLabel

%block PAO.Basis                 # Define Basis set
H.1                   2   0.465            # Label, l-shells, ionic net charge
 n=1   0   2                         # n, l, Nzeta 
   4.261      1.866   
   1.000      1.000   
 n=2   1   1                         # n, l, Nzeta 
   3.576   
   1.000   
O.2                   3  -0.242            # Label, l-shells, ionic net charge
 n=2   0   2                         # n, l, Nzeta 
   4.574      2.639   
   1.000      1.000   
 n=2   1   2                         # n, l, Nzeta 
   6.175      2.639   
   1.000      1.000   
 n=3   2   1                         # n, l, Nzeta 
   3.563   
   1.000   
Au.gga.3              2                    # Species label, number of l-shells
 n=6   0   2 P   1                   # n, l, Nzeta, Polarization, NzetaPol
   6.723      5.644   
   1.000      1.000   
 n=5   2   2                         # n, l, Nzeta 
   4.738      2.803   
   1.000      1.000   
Au.gga.4              2                    # Species label, number of l-shells
 n=6   0   2 P   1                   # n, l, Nzeta, Polarization, NzetaPol
   7.247      5.787   
   1.000      1.000   
 n=5   2   2                         # n, l, Nzeta 
   5.107      2.874   
   1.000      1.000   
Au.gga.5              2                    # Species label, number of l-shells
 n=6   0   2 P   1                   # n, l, Nzeta, Polarization, NzetaPol
   9.075      5.787   
   1.000      1.000   
 n=5   2   2                         # n, l, Nzeta 
   6.557      2.874   
   1.000      1.000   
%endblock PAO.Basis

prinput: ----------------------------------------------------------------------

Dumping basis to NetCDF file H.1.ion.nc
Dumping basis to NetCDF file O.2.ion.nc
Dumping basis to NetCDF file Au.gga.3.ion.nc
Dumping basis to NetCDF file Au.gga.4.ion.nc
Dumping basis to NetCDF file Au.gga.5.ion.nc
coor:   Atomic-coordinates input format  =     Cartesian coordinates
coor:                                          (in Angstroms)

siesta: Atomic coordinates (Bohr) and species
siesta:      0.02797  -0.12116  46.88852  5        1
siesta:      5.61253  -0.14063  46.94345  5        2
siesta:     11.21731  -0.15832  46.98259  5        3
siesta:     16.85395  -0.12205  46.98885  5        4
siesta:      2.83017   4.70882  46.88220  5        5
siesta:      8.42159   4.71769  46.94021  5        6
siesta:     14.04686   4.72203  47.03029  5        7
siesta:     19.65810   4.71105  46.91991  5        8
siesta:      0.03486   9.56874  47.01381  5        9
siesta:      5.61638   9.58776  46.93862  5       10
siesta:     11.23303   9.58345  46.97054  5       11
siesta:     16.83954   9.58104  47.18267  5       12
siesta:      2.86731  14.45387  47.03490  5       13
siesta:      8.43266  14.45823  46.91791  5       14
siesta:     13.99589  14.45970  47.17226  5       15
siesta:     19.64571  14.45249  47.09115  5       16
siesta:      2.83544   1.54696  51.81140  5       17
siesta:      8.40770   1.54496  51.77647  5       18
siesta:     14.01043   1.55877  51.79733  5       19
siesta:     19.64286   1.56925  51.73460  5       20
siesta:      0.01597   6.37323  51.73922  5       21
siesta:      5.59781   6.39594  51.70628  5       22
siesta:     11.21975   6.39541  51.74027  5       23
siesta:     16.82465   6.40100  51.89568  5       24
siesta:      2.84216  11.26226  51.78374  5       25
siesta:      8.39006  11.31741  51.67851  5       26
siesta:     14.02045  11.28824  51.87777  5       27
siesta:     19.65816  11.23827  51.84182  5       28
siesta:      0.10089  16.16642  51.68084  5       29
siesta:      5.58471  16.17288  51.89498  5       30
siesta:     11.14072  16.16910  51.91730  5       31
siesta:     16.83860  16.15532  51.80421  5       32
siesta:     -0.00910   3.23535  56.44526  3       33
siesta:      5.57277   3.24911  56.51115  3       34
siesta:     11.23356   3.22784  56.42890  3       35
siesta:     16.85813   3.18249  56.53348  3       36
siesta:      2.77728   8.08772  56.43544  3       37
siesta:      8.40907   8.13654  56.27652  3       38
siesta:     13.99535   8.05239  56.55763  3       39
siesta:     19.60350   8.03147  56.55436  3       40
siesta:     -0.02304  12.94152  56.34962  3       41
siesta:      5.64473  12.96494  56.43827  3       42
siesta:     11.24265  12.90747  56.49726  3       43
siesta:     16.82673  12.88646  56.53672  3       44
siesta:      2.72403  17.85623  56.70264  3       45
siesta:      8.36548  17.87802  56.58762  3       46
siesta:     14.09570  17.75171  56.48456  3       47
siesta:     19.64574  17.74892  56.28469  3       48
siesta:     -0.55503  -0.10152  61.03553  3       49
siesta:      6.12395   0.10426  61.46115  3       50
siesta:     11.41815   0.03680  61.25991  3       51
siesta:     16.53232   0.16676  62.06138  3       52
siesta:      2.76738   5.43225  61.14560  3       53
siesta:      8.46542   5.13004  61.12427  3       54
siesta:     13.95684   4.98038  61.52023  3       55
siesta:     19.47453   4.99097  61.78083  3       56
siesta:     -0.23692   9.86149  61.35779  3       57
siesta:      5.69059  10.01605  61.34743  3       58
siesta:     11.23915   9.88052  61.56107  3       59
siesta:     16.68244   9.75415  61.70652  3       60
siesta:      2.67107  14.64280  61.20915  3       61
siesta:      8.38817  14.67648  61.44683  3       62
siesta:     14.03308  14.67577  61.58155  3       63
siesta:     19.50146  14.50911  61.58332  3       64
siesta:      3.18496   2.03659  63.83502  2       65
siesta:      3.65630   2.49269  65.49214  1       66
siesta:     -1.94747   2.04211  63.48154  1       67

siesta: System type = slab      

initatomlists: Number of atoms, orbitals, and projectors:     67   983  1058

siesta: ******************** Simulation parameters ****************************
siesta:
siesta: The following are some of the parameters of the simulation.
siesta: A complete list of the parameters used, including default values,
siesta: can be found in file out.fdf
siesta:
redata: Non-Collinear-spin run           =     F
redata: SpinPolarized (Up/Down) run      =     F
redata: Number of spin components        =     1
redata: Long output                      =     F
redata: Number of Atomic Species         =        5
redata: Charge density info will appear in .RHO file
redata: Write Mulliken Pop.              =     NO
redata: Mesh Cutoff                      =   699.9937  Ry
redata: Net charge of the system         =     0.0000 |e|
redata: Min. number of SCF Iter          =        0
redata: Max. number of SCF Iter          =      500
redata: SCF convergence failure will abort job
redata: Mix DM or H after convergence    =     F
redata: Recompute H after scf cycle      =     F
redata: Performing Pulay mixing using    =     3 iterations
redata: Mix DM in first SCF step ?       =     F
redata: Write Pulay info on disk?        =     F
redata: Discard 1st Pulay DM after  kick =     F
redata: New DM Mixing Weight             =     0.0300
redata: New DM Occupancy tolerance       = 0.000000000001
redata: No kicks to SCF
redata: DM Mixing Weight for Kicks       =     0.5000
redata: DM Tolerance for SCF             =     0.000100
redata: Require (free) Energy convergence in SCF =     F
redata: DM (free)Energy tolerance for SCF =     0.000010 eV
redata: Require Harris convergence for SCF =     F
redata: DM Harris energy tolerance for SCF =     0.000010 eV
redata: Using Saved Data (generic)   =     F
redata: Use continuation files for DM    =     F
redata: Neglect nonoverlap interactions  =     F
redata: Method of Calculation            =     Diagonalization
redata: Divide and Conquer               =     T
redata: Electronic Temperature           =     0.0037  Ry
redata: Fix the spin of the system       =     F
redata: Dynamics option                  =     Single-point calculation
redata: ***********************************************************************
Total number of electrons:   712.000000
Total ionic charge:   712.000000

* ProcessorY, Blocksize:    4  24


* Orbital distribution balance (max,min):    48    24

 Kpoints in:            1 . Kpoints trimmed:            1

siesta: k-grid: Number of k-points =     1
siesta: k-grid: Cutoff (effective) =     5.186 Ang
siesta: k-grid: Supercell and displacements
siesta: k-grid:    1   0   0      0.000
siesta: k-grid:    0   1   0      0.000
siesta: k-grid:    0   0   1      0.000

                     ====================================
                        Single-point calculation
                     ====================================

outcell: Unit cell vectors (Ang):
       11.975725    0.000000    0.000000
        0.000000   10.371282    0.000000
        0.000000    0.000000   57.333624

outcell: Cell vector modules (Ang)   :   11.975725   10.371282   57.333624
outcell: Cell angles (23,13,12) (deg):     90.0000     90.0000     90.0000
outcell: Cell volume (Ang**3)        :   7121.0442
 Folding of H and S is implicitly performed
New_DM. Step:     1
Initializing Density Matrix...

initdm: WARNING: DM.InitSpin not used because nspin < 2
New grid distribution:   1
           1       1:   96    1:   23    1:   60
           2       1:   96    1:   23   61:  120
           3       1:   96    1:   23  121:  180
           4       1:   96    1:   23  181:  240
           5       1:   96    1:   23  241:  300
           6       1:   96    1:   23  301:  360
           7       1:   96    1:   23  361:  420
           8       1:   96    1:   23  421:  480
           9       1:   96   24:   46    1:   60
          10       1:   96   24:   46   61:  120
          11       1:   96   24:   46  121:  180
          12       1:   96   24:   46  181:  240
          13       1:   96   24:   46  241:  300
          14       1:   96   24:   46  301:  360
          15       1:   96   24:   46  361:  420
          16       1:   96   24:   46  421:  480
          17       1:   96   47:   68    1:   60
          18       1:   96   47:   68   61:  120
          19       1:   96   47:   68  121:  180
          20       1:   96   47:   68  181:  240
          21       1:   96   47:   68  241:  300
          22       1:   96   47:   68  301:  360
          23       1:   96   47:   68  361:  420
          24       1:   96   47:   68  421:  480
          25       1:   96   69:   90    1:   60
          26       1:   96   69:   90   61:  120
          27       1:   96   69:   90  121:  180
          28       1:   96   69:   90  181:  240
          29       1:   96   69:   90  241:  300
          30       1:   96   69:   90  301:  360
          31       1:   96   69:   90  361:  420
          32       1:   96   69:   90  421:  480

InitMesh: MESH =   192 x   180 x   960 =    33177600
InitMesh: (bp) =    96 x    90 x   480 =     4147200
InitMesh: Mesh cutoff (required, used) =   699.994   710.396 Ry
ExtMesh (bp) on 0 =   252 x   191 x   224 =    10781568
New grid distribution:   2
           1      48:   96    1:   44    1:  206
           2      49:   96   46:   90  229:  236
           3       1:   48   46:   90  215:  221
           4      49:   96    1:   45  237:  245
           5      48:   96    1:   45  246:  257
           6       1:   48    1:   44  258:  480
           7       1:   48    1:   45  207:  214
           8      49:   96    1:   45  215:  221
           9       1:   47    1:   45    1:  206
          10       1:   48   46:   90  207:  214
          11       1:   48    1:   45  215:  221
          12       1:   48    1:   45  237:  245
          13       1:   47    1:   45  246:  257
          14      49:   96    1:   44  258:  480
          15      49:   96   46:   90  207:  214
          16      49:   96    1:   45  222:  228
          17      48:   96   45:   90    1:  206
          18       1:   48    1:   45  229:  236
          19       1:   48   46:   90  222:  228
          20      49:   96   46:   90  237:  245
          21      48:   96   46:   90  246:  257
          22       1:   48   45:   90  258:  480
          23      49:   96    1:   45  207:  214
          24      49:   96   46:   90  222:  228
          25       1:   47   46:   90    1:  206
          26       1:   48   46:   90  229:  236
          27      49:   96   46:   90  215:  221
          28       1:   48   46:   90  237:  245
          29       1:   47   46:   90  246:  257
          30      49:   96   45:   90  258:  480
          31      49:   96    1:   45  229:  236
          32       1:   48    1:   45  222:  228
New grid distribution:   3
           1      48:   96    1:   45    1:  185
           2      49:   96    1:   45  270:  286
           3      49:   96   46:   90  186:  202
           4       1:   48    1:   45  237:  253
           5      49:   96    1:   45  237:  253
           6      49:   96    1:   44  287:  480
           7       1:   48    1:   45  220:  236
           8      49:   96    1:   45  220:  236
           9       1:   47    1:   45    1:  185
          10      49:   96   46:   90  270:  286
          11       1:   48   46:   90  220:  236
          12      49:   96    1:   45  203:  219
          13       1:   48    1:   45  270:  286
          14       1:   48    1:   42  287:  480
          15      49:   96    1:   45  186:  202
          16      49:   96   46:   90  220:  236
          17      48:   96   46:   90    1:  185
          18       1:   48    1:   45  186:  202
          19       1:   48    1:   45  254:  269
          20       1:   48   46:   90  203:  219
          21      49:   96   46:   90  237:  253
          22       1:   48   43:   90  287:  480
          23       1:   48   46:   90  186:  202
          24      49:   96    1:   45  254:  269
          25       1:   47   46:   90    1:  185
          26       1:   48   46:   90  270:  286
          27      49:   96   46:   90  254:  269
          28      49:   96   46:   90  203:  219
          29       1:   48   46:   90  237:  253
          30      49:   96   45:   90  287:  480
          31       1:   48    1:   45  203:  219
          32       1:   48   46:   90  254:  269
Setting up quadratic distribution...
ExtMesh (bp) on 0 =   205 x   212 x   370 =    16080200
PhiOnMesh: Number of (b)points on node 0 =               444136
PhiOnMesh: nlist on node 0 =              3685846

stepf: Fermi-Dirac step function

siesta: Program's energy decomposition (eV):
siesta: Ebs     =     -3472.529528
siesta: Eions   =     74448.861464
siesta: Ena     =      3160.733197
siesta: Ekin    =     44340.467594
siesta: Enl     =    -18459.682082
siesta: DEna    =         0.000048
siesta: DUscf   =         0.000000
siesta: DUext   =         0.000000
siesta: Exc     =    -46061.618783
siesta: eta*DQ  =         0.000000
siesta: Emadel  =         0.000000
siesta: Emeta   =         0.000000
siesta: Emolmec =         0.000000
siesta: Ekinion =         0.000000
siesta: Eharris =    -91689.451879
siesta: Etot    =    -91468.961490
siesta: FreeEng =    -91469.474631

   scf: iscf   Eharris(eV)      E_KS(eV)   FreeEng(eV)    dDmax  Ef(eV)
   scf:    1   -91689.4519   -91468.9615   -91469.4746  1.63010 -1.3674
timer: Routine,Calls,Time,% =    IterSCF     1      10.005  33.84
   scf:    2  -104734.4601   -90992.6797   -90992.8364224.83267-11.9832
   scf:    3   -91668.7110   -91475.0012   -91475.2241  1.38415 -1.9214
   scf:    4   -91648.8225   -91483.7370   -91484.0435  1.25265 -2.2773
   scf:    5   -91602.7774   -91509.4259   -91509.6574  0.78473 -3.4748
   scf:    6   -91582.3522   -91525.7150   -91525.9053  0.51850 -4.2293
   scf:    7   -91578.9324   -91532.9634   -91533.1054  0.56905 -4.3973
   scf:    8   -91577.4256   -91538.0021   -91538.0999  0.51189 -4.2253
   scf:    9   -91577.3756   -91544.0167   -91544.1082  0.35861 -3.9646
   scf:   10   -91578.0039   -91550.5775   -91550.6710  0.26948 -3.7776
   scf:   11   -91578.8372   -91561.6026   -91561.6976  0.23725 -3.6725
   scf:   12   -91578.3688   -91563.4353   -91563.5305  0.21100 -3.7353
   scf:   13   -91577.3762   -91565.6240   -91565.7276  0.11357 -3.8962
   scf:   14   -91576.8937   -91565.5877   -91565.6936  0.12429 -4.0078
   scf:   15   -91576.8289   -91565.7331   -91565.8368  0.12038 -4.0073
   scf:   16   -91576.7481   -91566.7771   -91566.8747  0.12270 -3.9368
   scf:   17   -91576.7522   -91567.3406   -91567.4379  0.11646 -3.9384
   scf:   18   -91576.8493   -91571.3842   -91571.4842  0.08212 -4.0168
   scf:   19   -91576.8376   -91572.3281   -91572.4293  0.07264 -4.0350
   scf:   20   -91576.7617   -91574.1505   -91574.2535  0.03765 -4.0477
   scf:   21   -91576.7353   -91574.3813   -91574.4830  0.02657 -4.0279
   scf:   22   -91576.7092   -91574.3623   -91574.4621  0.02470 -3.9928
   scf:   23   -91576.7031   -91574.3476   -91574.4473  0.02244 -3.9887
   scf:   24   -91576.6979   -91574.3977   -91574.4975  0.02209 -3.9928
   scf:   25   -91576.6976   -91574.5437   -91574.6439  0.02100 -4.0027
   scf:   26   -91576.6993   -91574.8377   -91574.9384  0.02123 -4.0139
   scf:   27   -91576.7031   -91575.4369   -91575.5376  0.01510 -4.0185
   scf:   28   -91576.7035   -91575.7791   -91575.8794  0.01344 -4.0115
   scf:   29   -91576.7010   -91575.9742   -91576.0740  0.00969 -3.9960
   scf:   30   -91576.6994   -91576.0059   -91576.1057  0.00789 -3.9930
   scf:   31   -91576.6968   -91576.0044   -91576.1046  0.00703 -3.9961
   scf:   32   -91576.6964   -91576.0202   -91576.1204  0.00687 -3.9986
   scf:   33   -91576.6961   -91576.0970   -91576.1974  0.00615 -4.0053
   scf:   34   -91576.6962   -91576.1518   -91576.2522  0.00582 -4.0063
   scf:   35   -91576.6968   -91576.3083   -91576.4085  0.00525 -4.0044
   scf:   36   -91576.6969   -91576.3768   -91576.4769  0.00422 -4.0017
   scf:   37   -91576.6967   -91576.4375   -91576.5377  0.00286 -3.9994
   scf:   38   -91576.6964   -91576.4601   -91576.5603  0.00261 -4.0001
   scf:   39   -91576.6962   -91576.4708   -91576.5711  0.00248 -4.0017
   scf:   40   -91576.6961   -91576.4784   -91576.5788  0.00237 -4.0037
   scf:   41   -91576.6961   -91576.4857   -91576.5861  0.00228 -4.0040
   scf:   42   -91576.6962   -91576.5141   -91576.6144  0.00198 -4.0035
   scf:   43   -91576.6962   -91576.5320   -91576.6323  0.00181 -4.0030
   scf:   44   -91576.6962   -91576.5825   -91576.6829  0.00127 -4.0021
   scf:   45   -91576.6961   -91576.6069   -91576.7073  0.00103 -4.0023
   scf:   46   -91576.6961   -91576.6304   -91576.7309  0.00082 -4.0035
   scf:   47   -91576.6961   -91576.6352   -91576.7356  0.00089 -4.0039
   scf:   48   -91576.6961   -91576.6366   -91576.7370  0.00078 -4.0041
   scf:   49   -91576.6961   -91576.6369   -91576.7373  0.00066 -4.0040
   scf:   50   -91576.6961   -91576.6384   -91576.7388  0.00064 -4.0037
   scf:   51   -91576.6961   -91576.6425   -91576.7428  0.00060 -4.0035
   scf:   52   -91576.6961   -91576.6499   -91576.7503  0.00053 -4.0035
   scf:   53   -91576.6960   -91576.6618   -91576.7623  0.00044 -4.0038
   scf:   54   -91576.6961   -91576.6697   -91576.7702  0.00047 -4.0040
   scf:   55   -91576.6961   -91576.6766   -91576.7770  0.00038 -4.0041
   scf:   56   -91576.6961   -91576.6783   -91576.7787  0.00034 -4.0040
   scf:   57   -91576.6961   -91576.6786   -91576.7790  0.00023 -4.0037
   scf:   58   -91576.6961   -91576.6789   -91576.7793  0.00022 -4.0037
   scf:   59   -91576.6961   -91576.6800   -91576.7804  0.00018 -4.0037
   scf:   60   -91576.6961   -91576.6809   -91576.7813  0.00017 -4.0038
   scf:   61   -91576.6961   -91576.6841   -91576.7845  0.00017 -4.0039
   scf:   62   -91576.6961   -91576.6866   -91576.7870  0.00016 -4.0039
   scf:   63   -91576.6961   -91576.6890   -91576.7894  0.00015 -4.0038
   scf:   64   -91576.6961   -91576.6899   -91576.7903  0.00011 -4.0037
   scf:   65   -91576.6961   -91576.6902   -91576.7906  0.00008 -4.0037

SCF Convergence by dMax criterion
max |DM_out - DM_in|:     0.00007942
SCF cycle converged after   65 iterations

Using DM_out to compute the final energy and forces

siesta: E_KS(eV) =           -91576.6961

siesta: E_KS - E_eggbox =    -91576.6961

siesta: Atomic forces (eV/Ang):
     1   -0.125380   -0.109987    0.001775
     2   -0.012503   -0.175582   -0.075613
     3   -0.020951   -0.177881   -0.074198
     4    0.126788   -0.167345   -0.053211
     5   -0.135747    0.003385   -0.123072
     6    0.026294    0.014421   -0.146820
     7    0.003175    0.027367   -0.150347
     8    0.144853    0.000856   -0.063937
     9   -0.137948   -0.018495   -0.044768
    10    0.009916   -0.012886   -0.137046
    11   -0.012464   -0.015789   -0.169164
    12    0.109787   -0.013711   -0.120526
    13   -0.097476    0.168535   -0.088840
    14    0.029272    0.162098   -0.100838
    15   -0.002228    0.159970   -0.131053
    16    0.098730    0.128765   -0.003677
    17   -0.126307   -0.204042    0.202721
    18    0.023006   -0.182788    0.229480
    19    0.010900   -0.176919    0.232707
    20    0.152823   -0.127797    0.267687
    21   -0.182933    0.007449    0.186380
    22   -0.014109    0.025385    0.177151
    23   -0.028524    0.019939    0.180595
    24    0.156010    0.005910    0.160919
    25   -0.137563   -0.027721    0.198760
    26    0.013204   -0.004389    0.181719
    27    0.004643   -0.013195    0.203172
    28    0.176315   -0.007675    0.229029
    29   -0.148730    0.167250    0.149808
    30   -0.006227    0.215278    0.157796
    31   -0.035915    0.194564    0.140991
    32    0.132106    0.179084    0.151052
    33   -0.162412   -0.144925    0.140728
    34   -0.000386   -0.143882    0.190515
    35   -0.023438   -0.137422    0.201120
    36    0.127392   -0.142672    0.188480
    37   -0.140183   -0.009835    0.305748
    38    0.041483    0.028480    0.229103
    39    0.002015    0.032866    0.193593
    40    0.141794   -0.011866    0.221607
    41   -0.199963    0.015826    0.157803
    42   -0.032665    0.013810    0.234360
    43   -0.008446   -0.008457    0.200364
    44    0.132048    0.024932    0.180599
    45   -0.237638    0.179695    0.221733
    46   -0.003668    0.203563    0.256430
    47    0.038548    0.181405    0.194614
    48    0.235561    0.137401    0.212538
    49   -0.414888   -0.066727   -0.052848
    50    0.450896   -0.366929   -0.513484
    51   -0.036346   -0.202802   -0.244030
    52    0.266139   -0.071529   -0.432152
    53   -0.156958    0.168863   -0.382802
    54    0.030419    0.006044   -0.203778
    55    0.039010    0.006957   -0.243271
    56    0.187890   -0.231364   -0.185670
    57   -0.182792    0.035435   -0.309922
    58    0.012268   -0.010029   -0.255040
    59   -0.012383   -0.025454   -0.255775
    60    0.155434    0.016336   -0.314951
    61   -0.133438    0.069713   -0.273929
    62    0.007814    0.160072   -0.279628
    63    0.041274    0.177222   -0.264450
    64    0.163634    0.120482   -0.353543
    65   -0.575562   -0.377263   -1.274636
    66    0.499172    0.367003    1.534695
    67   -0.248259   -0.033857   -0.600630
----------------------------------------
   Tot   -0.003817    0.005145   -0.007874
----------------------------------------
   Max    1.534695
   Res    0.227823    sqrt( Sum f_i^2 / 3N )
----------------------------------------
   Max    1.534695    constrained

Stress-tensor-Voigt (kbar):       11.55       15.38        2.70        0.02        0.10       -0.14
(Free)E + p*V (eV/cell)   -91620.6967
Target enthalpy (eV/cell)   -91576.7965

siesta: Eigenvalues (eV):
  ik is    eps
   1  1 -23.63 -12.71 -11.85 -11.51 -11.46 -11.43 -11.17 -11.12 -11.01 -10.71
        -10.62 -10.46 -10.41 -10.41 -10.39 -10.36 -10.36 -10.33 -10.32 -10.29
        -10.26 -10.24 -10.23 -10.21 -10.13  -9.91  -9.90  -9.88  -9.85  -9.83
         -9.80  -9.77  -9.76  -9.76  -9.74  -9.73  -9.73  -9.73  -9.70  -9.69
         -9.67  -9.65  -9.63  -9.63  -9.61  -9.59  -9.59  -9.57  -9.55  -9.54
         -9.52  -9.52  -9.50  -9.49  -9.48  -9.45  -9.42  -9.38  -9.37  -9.33
         -9.30  -9.29  -9.26  -9.26  -9.21  -9.20  -9.17  -9.16  -9.14  -9.12
         -9.12  -9.06  -9.03  -9.01  -9.01  -8.98  -8.97  -8.96  -8.95  -8.94
         -8.93  -8.92  -8.90  -8.88  -8.87  -8.83  -8.83  -8.82  -8.80  -8.79
         -8.78  -8.76  -8.75  -8.73  -8.72  -8.72  -8.71  -8.69  -8.68  -8.67
         -8.66  -8.65  -8.63  -8.63  -8.62  -8.61  -8.59  -8.59  -8.58  -8.57
         -8.56  -8.55  -8.54  -8.53  -8.52  -8.51  -8.49  -8.47  -8.47  -8.44
         -8.43  -8.43  -8.43  -8.42  -8.41  -8.39  -8.38  -8.36  -8.35  -8.35
         -8.34  -8.32  -8.31  -8.30  -8.30  -8.28  -8.24  -8.23  -8.22  -8.20
         -8.18  -8.17  -8.17  -8.15  -8.14  -8.14  -8.13  -8.13  -8.12  -8.10
         -8.10  -8.08  -8.07  -8.06  -8.05  -8.03  -8.03  -8.01  -8.00  -7.99
         -7.99  -7.96  -7.96  -7.95  -7.93  -7.92  -7.91  -7.90  -7.89  -7.88
         -7.88  -7.87  -7.87  -7.86  -7.84  -7.83  -7.81  -7.80  -7.79  -7.79
         -7.78  -7.78  -7.75  -7.73  -7.73  -7.71  -7.68  -7.67  -7.66  -7.65
         -7.63  -7.61  -7.60  -7.58  -7.57  -7.55  -7.55  -7.52  -7.52  -7.50
         -7.49  -7.49  -7.48  -7.47  -7.45  -7.44  -7.43  -7.43  -7.41  -7.41
         -7.39  -7.38  -7.37  -7.36  -7.35  -7.34  -7.33  -7.31  -7.30  -7.30
         -7.29  -7.28  -7.27  -7.26  -7.26  -7.25  -7.23  -7.23  -7.21  -7.19
         -7.18  -7.17  -7.16  -7.15  -7.13  -7.13  -7.11  -7.10  -7.09  -7.07
         -7.07  -7.06  -7.05  -7.04  -7.04  -7.01  -7.00  -6.98  -6.97  -6.95
         -6.93  -6.92  -6.91  -6.88  -6.88  -6.88  -6.87  -6.86  -6.84  -6.83
         -6.82  -6.80  -6.79  -6.78  -6.77  -6.76  -6.75  -6.73  -6.69  -6.69
         -6.67  -6.65  -6.64  -6.63  -6.60  -6.59  -6.57  -6.56  -6.54  -6.54
         -6.52  -6.51  -6.50  -6.49  -6.49  -6.47  -6.47  -6.46  -6.44  -6.43
         -6.43  -6.42  -6.42  -6.40  -6.40  -6.39  -6.39  -6.38  -6.38  -6.37
         -6.36  -6.35  -6.34  -6.33  -6.32  -6.31  -6.30  -6.28  -6.28  -6.27
         -6.26  -6.26  -6.25  -6.23  -6.22  -6.21  -6.21  -6.20  -6.20  -6.18
         -6.17  -6.12  -6.11  -6.11  -6.09  -6.08  -6.07  -6.07  -6.05  -6.04
         -6.02  -5.98  -5.92  -5.90  -5.87  -5.86  -5.85  -5.84  -5.83  -5.80
         -5.80  -5.74  -5.71  -5.66  -5.63  -5.47  -5.42  -5.23  -4.86  -4.81
         -4.72  -4.64  -4.44  -4.43  -4.28  -4.09  -3.89  -3.81  -3.78  -3.74
         -3.72  -3.70  -3.61  -3.50  -3.23  -3.21  -3.16  -3.05  -2.96  -2.92
         -2.89  -2.80  -2.72  -2.72  -2.61  -2.59  -2.45  -2.33  -2.19  -2.11
         -2.06  -2.06  -2.02  -1.51  -1.32  -1.26  -1.19  -1.12  -1.07  -1.05
         -0.95  -0.93  -0.88  -0.83  -0.70  -0.65  -0.57  -0.36  -0.28  -0.14
          0.05   0.23   0.45   0.52   0.59   0.90   0.95   0.99   1.07   1.11
          1.15   1.30   1.34   1.41   1.49   1.52   1.64   1.69   1.80   1.86
          1.94   2.01   2.05   2.20   2.28   2.39   2.70   2.83   2.89   2.96
          3.00   3.08   3.15   3.21   3.49   3.54   3.58   3.70   3.84   3.89
          3.92   3.95   3.98   4.06   4.39   4.70   4.72   4.79   4.82   4.88
          4.93   4.95   5.04   5.07   5.13   5.31   5.35   5.48   5.60   5.73
          5.77   5.80   5.99   6.00   6.11   6.14   6.20   6.22   6.29   6.34
          6.35   6.40   6.52   6.55   6.63   6.67   6.69   6.83   6.89   6.95
          7.00   7.19   7.31   7.43   7.62   7.63   7.67   7.68   7.75   7.80
          7.86   7.87   7.91   7.93   8.06   8.15   8.24   8.47   8.56   8.66
          8.72   8.74   8.87   8.88   8.98   8.99   9.00   9.05   9.19   9.34
          9.39   9.45   9.59   9.68   9.74   9.83   9.91  10.01  10.08  10.42
         10.52  10.58  10.63  10.66  10.71  10.72  10.74  10.80  10.84  10.87
         10.92  10.96  10.98  11.06  11.10  11.21  11.36  11.46  11.61  11.71
         11.73  11.79  11.83  11.90  11.94  11.96  12.02  12.10  12.16  12.31
         12.50  12.55  12.58  12.60  12.68  12.72  12.79  12.89  12.99  13.05
         13.15  13.18  13.22  13.39  13.44  13.57  13.71  13.79  13.87  13.89
         14.18  14.56  14.74  14.78  14.79  14.84  14.87  15.01  15.02  15.04
         15.13  15.21  15.23  15.29  15.37  15.42  15.59  15.60  15.70  15.75
         16.02  16.19  16.35  16.50  16.52  16.55  16.58  16.62  16.76  16.81
         16.90  17.02  17.08  17.18  17.27  17.33  17.43  17.58  17.76  17.87
         18.01  18.13  18.14  18.42  18.45  18.48  18.51  18.67  18.88  19.01
         19.06  19.13  19.20  19.25  19.31  19.36  19.55  19.67  19.71  19.93
         19.99  20.12  20.18  20.20  20.24  20.31  20.46  20.57  20.67  20.82
         20.88  21.05  21.23  21.38  21.45  21.56  21.63  21.74  21.80  21.90
         21.99  22.10  22.15  22.18  22.20  22.24  22.34  22.38  22.48  22.58
         22.68  22.73  22.75  22.93  23.05  23.21  23.25  23.37  23.58  23.70
         23.74  23.81  23.86  23.95  23.97  24.02  24.10  24.17  24.20  24.24
         24.25  24.32  24.41  24.51  24.69  24.82  24.85  24.88  24.96  24.99
         25.05  25.17  25.22  25.31  25.37  25.46  25.46  25.52  25.69  25.73
         25.84  25.92  25.97  26.05  26.10  26.17  26.18  26.23  26.30  26.33
         26.39  26.44  26.55  26.56  26.63  26.66  26.72  26.81  26.91  26.94
         26.99  27.07  27.13  27.15  27.20  27.24  27.31  27.45  27.51  27.52
         27.57  27.59  27.73  27.81  27.87  27.91  28.02  28.08  28.17  28.24
         28.29  28.39  28.47  28.50  28.62  28.63  28.72  28.83  28.87  28.92
         29.05  29.08  29.17  29.24  29.27  29.29  29.38  29.40  29.46  29.53
         29.59  29.70  29.71  29.88  29.90  29.96  29.99  30.15  30.17  30.26
         30.33  30.40  30.47  30.51  30.58  30.70  30.76  30.86  30.88  30.94
         31.01  31.08  31.16  31.18  31.21  31.31  31.36  31.38  31.48  31.59
         31.69  31.78  31.85  31.86  31.98  32.04  32.12  32.20  32.25  32.33
         32.40  32.44  32.47  32.51  32.53  32.60  32.65  32.74  32.76  32.83
         32.91  32.92  32.99  33.05  33.11  33.21  33.25  33.29  33.37  33.42
         33.46  33.51  33.57  33.59  33.62  33.70  33.74  33.81  33.87  33.97
         34.06  34.12  34.28  34.33  34.36  34.51  34.59  34.63  34.76  34.80
         34.91  34.93  34.99  35.15  35.19  35.28  35.50  35.54  35.57  35.59
         35.63  35.76  35.83  35.85  35.98  36.11  36.16  36.24  36.31  36.36
         36.57  36.63  36.78  36.83  36.92  36.98  36.98  37.07  37.20  37.29
         37.35  37.45  37.50  37.56  37.69  37.80  37.91  38.06  38.20  38.21
         38.33  38.40  38.50  38.53  38.60  38.69  38.76  38.84  39.04  39.20
         39.33  39.48  39.66  39.76  40.04  40.10  40.25  40.34  40.41  40.46
         40.50  40.59  40.64  40.73  40.75  40.79  40.88  41.00  41.03  41.19
         41.39  41.40  41.48  41.62  41.83  41.89  42.04  42.11  42.18  42.30
         42.40  42.47  42.57  42.74  42.83  42.97  43.03  43.10  43.13  43.25
         43.39  43.51  43.67  43.77  43.87  43.97  44.03  44.08  44.14  44.20
         44.37  44.45  44.56  44.76  44.99  45.07  45.30  45.57  45.77  45.87
         46.03  46.15  46.22  46.34  46.44  46.50  46.55  46.64  46.79  47.11
         47.55  47.66  47.78  48.00  48.14  48.32  48.43  48.58  48.65  48.80
         49.05  49.65  49.72  50.30  50.43  50.62  55.09  56.11  60.03  61.38
         61.88  62.19  71.29
siesta: Fermi energy =      -4.003689 eV

siesta: Program's energy decomposition (eV):
siesta: Ebs     =     -5611.998620
siesta: Eions   =     74448.861464
siesta: Ena     =      3160.733197
siesta: Ekin    =     41785.983592
siesta: Enl     =    -17193.517214
siesta: DEna    =       611.176645
siesta: DUscf   =        55.683191
siesta: DUext   =         0.000000
siesta: Exc     =    -45547.894024
siesta: eta*DQ  =         0.000000
siesta: Emadel  =         0.000000
siesta: Emeta   =         0.000000
siesta: Emolmec =         0.000000
siesta: Ekinion =         0.000000
siesta: Eharris =    -91576.696078
siesta: Etot    =    -91576.696077
siesta: FreeEng =    -91576.796471

siesta: Final energy (eV):
siesta:  Band Struct. =   -5611.998620
siesta:       Kinetic =   41785.983592
siesta:       Hartree = 1201248.744970
siesta:    Ext. field =       0.000000
siesta:   Exch.-corr. =  -45547.894024
siesta:  Ion-electron =-2434891.556016
siesta:       Ion-ion = 1145828.025400
siesta:       Ekinion =       0.000000
siesta:         Total =  -91576.696077

siesta: Atomic forces (eV/Ang):
siesta:      1   -0.125380   -0.109987    0.001775
siesta:      2   -0.012503   -0.175582   -0.075613
siesta:      3   -0.020951   -0.177881   -0.074198
siesta:      4    0.126788   -0.167345   -0.053211
siesta:      5   -0.135747    0.003385   -0.123072
siesta:      6    0.026294    0.014421   -0.146820
siesta:      7    0.003175    0.027367   -0.150347
siesta:      8    0.144853    0.000856   -0.063937
siesta:      9   -0.137948   -0.018495   -0.044768
siesta:     10    0.009916   -0.012886   -0.137046
siesta:     11   -0.012464   -0.015789   -0.169164
siesta:     12    0.109787   -0.013711   -0.120526
siesta:     13   -0.097476    0.168535   -0.088840
siesta:     14    0.029272    0.162098   -0.100838
siesta:     15   -0.002228    0.159970   -0.131053
siesta:     16    0.098730    0.128765   -0.003677
siesta:     17   -0.126307   -0.204042    0.202721
siesta:     18    0.023006   -0.182788    0.229480
siesta:     19    0.010900   -0.176919    0.232707
siesta:     20    0.152823   -0.127797    0.267687
siesta:     21   -0.182933    0.007449    0.186380
siesta:     22   -0.014109    0.025385    0.177151
siesta:     23   -0.028524    0.019939    0.180595
siesta:     24    0.156010    0.005910    0.160919
siesta:     25   -0.137563   -0.027721    0.198760
siesta:     26    0.013204   -0.004389    0.181719
siesta:     27    0.004643   -0.013195    0.203172
siesta:     28    0.176315   -0.007675    0.229029
siesta:     29   -0.148730    0.167250    0.149808
siesta:     30   -0.006227    0.215278    0.157796
siesta:     31   -0.035915    0.194564    0.140991
siesta:     32    0.132106    0.179084    0.151052
siesta:     33   -0.162412   -0.144925    0.140728
siesta:     34   -0.000386   -0.143882    0.190515
siesta:     35   -0.023438   -0.137422    0.201120
siesta:     36    0.127392   -0.142672    0.188480
siesta:     37   -0.140183   -0.009835    0.305748
siesta:     38    0.041483    0.028480    0.229103
siesta:     39    0.002015    0.032866    0.193593
siesta:     40    0.141794   -0.011866    0.221607
siesta:     41   -0.199963    0.015826    0.157803
siesta:     42   -0.032665    0.013810    0.234360
siesta:     43   -0.008446   -0.008457    0.200364
siesta:     44    0.132048    0.024932    0.180599
siesta:     45   -0.237638    0.179695    0.221733
siesta:     46   -0.003668    0.203563    0.256430
siesta:     47    0.038548    0.181405    0.194614
siesta:     48    0.235561    0.137401    0.212538
siesta:     49   -0.414888   -0.066727   -0.052848
siesta:     50    0.450896   -0.366929   -0.513484
siesta:     51   -0.036346   -0.202802   -0.244030
siesta:     52    0.266139   -0.071529   -0.432152
siesta:     53   -0.156958    0.168863   -0.382802
siesta:     54    0.030419    0.006044   -0.203778
siesta:     55    0.039010    0.006957   -0.243271
siesta:     56    0.187890   -0.231364   -0.185670
siesta:     57   -0.182792    0.035435   -0.309922
siesta:     58    0.012268   -0.010029   -0.255040
siesta:     59   -0.012383   -0.025454   -0.255775
siesta:     60    0.155434    0.016336   -0.314951
siesta:     61   -0.133438    0.069713   -0.273929
siesta:     62    0.007814    0.160072   -0.279628
siesta:     63    0.041274    0.177222   -0.264450
siesta:     64    0.163634    0.120482   -0.353543
siesta:     65   -0.575562   -0.377263   -1.274636
siesta:     66    0.499172    0.367003    1.534695
siesta:     67   -0.248259   -0.033857   -0.600630
siesta: ----------------------------------------
siesta:    Tot   -0.003817    0.005145   -0.007874

siesta: Stress tensor (static) (eV/Ang**3):
siesta:     0.007208    0.000010   -0.000086
siesta:     0.000010    0.009600    0.000065
siesta:    -0.000086    0.000065    0.001687

siesta: Cell volume =       7121.044177 Ang**3

siesta: Pressure (static):
siesta:                Solid            Molecule  Units
siesta:          -0.00006714         -0.00008416  Ry/Bohr**3
siesta:          -0.00616486         -0.00772735  eV/Ang**3
siesta:          -9.87729434        -12.38070957  kBar
(Free)E+ p_basis*V_orbitals  =      -91504.119276
(Free)Eharris+ p_basis*V_orbitals  =      -91504.119276

siesta: Electric dipole (a.u.)  =    0.000000    0.000000    1.514994
siesta: Electric dipole (Debye) =    0.000000    0.000000    3.850735
>> End of run:   9-APR-2024  20:08:15
Job completed
