SystemName     geometry-7                                                                      
SystemLabel     geometry-7                                                                      
XML.Write              T     # default value
XML.AbortOnErrors              F     # default value
XML.AbortOnWarnings              F     # default value
timer_report_threshold          0.000000000         # default value
UseTreeTimer              F     # default value
alloc_report_level         0     # default value
alloc_report_threshold          0.000000000         # default value
xc.functional     GGA                                                                             
xc.authors     PBE                                                                             
MM.Cutoff          30.00000000     Bohr     # default value
MM.UnitsEnergy     eV     # default value
MM.UnitsDistance     Ang     # default value
WriteIonPlotFiles              F     # default value
Atom.Debug.KB.Generation              F     # default value
KB.New.Reference.Orbitals              F     # default value
user-basis              F     # default value
user-basis-netcdf              F     # default value
ReparametrizePseudos              F     # default value
Restricted.Radial.Grid              T     # default value
Rmax.Radial.Grid          0.000000000         # default value
PAO.BasisSize     standard            # default value
PAO.BasisType     split          # default value
PAO.SoftDefault              F     # default value
PAO.SoftInnerRadius         0.9000000000         # default value
PAO.SoftPotential          40.00000000         # default value
PAO.SplitNorm         0.1500000000         # default value
PAO.SplitNormH         -1.000000000         # default value
Number_of_species              5
%block Chemical_species_label
     1 1 H.1
     2 8 O.2
     3 79 Au.gga.3
     4 79 Au.gga.4
     5 79 Au.gga.5
%endblock Chemical_species_label
%block PAO.BasisSizes
     Au.gga.3	DZP
%endblock PAO.BasisSizes
%block PAO.Basis
 H.1 2 0.46527
             n=1 0 2 E 99.93138 2.59932
             4.20357 1.84463
             n=2 1 1 E 24.56504 2.20231
 (Backspace to) |            n=2 1 1 E 24.56504 2.20231|
             n=2 1 1 E 24.56504 2.20231
             3.52816
 O.2 3 -0.24233
 (Backspace to) |O.2 3 -0.24233|
 O.2 3 -0.24233
             n=2 0 2 E 23.36061 3.39721
             4.50769 2.64066
             n=2 1 2 E 2.78334 5.14253
 (Backspace to) |            n=2 1 2 E 2.78334 5.14253|
             n=2 1 2 E 2.78334 5.14253
             6.14996 2.59356
             n=3 2 1 E 63.98188 0.16104
 (Backspace to) |            n=3 2 1 E 63.98188 0.16104|
             n=3 2 1 E 63.98188 0.16104
             3.54403
 Au.gga.4 2
 (Backspace to) |Au.gga.4 2|
 Au.gga.4 2
             n=6 0 2 P 1
             7.24700 5.71500
             n=5 2 2
 (Backspace to) |            n=5 2 2|
             n=5 2 2
             5.10700 2.83800
 Au.gga.5 2
 (Backspace to) |Au.gga.5 2|
 Au.gga.5 2
             n=6 0 2 P 1
             9.07500 5.78700
             n=5 2 2
 (Backspace to) |            n=5 2 2|
             n=5 2 2
             6.55700 2.87400
%endblock PAO.Basis
%endblock PAO.Basis
FilterCutoff          0.000000000     Ry     # default value
FilterTol          0.000000000     Ry     # default value
KB.Rmax          6.000000000     Bohr     # default value
PAO.EnergyShift         0.7349798845E-02         Ry
# above item originally: PAO.EnergyShift         0.1000000000     eV        
PAO.SplitTailNorm              F     # default value
PAO.FixSplitTable              F     # default value
PAO.NewSplitCode              F     # default value
PAO.Filter              F     # default value
PAO.Filter              F     # default value
PAO.Filter              F     # default value
PAO.OldStylePolorbs              T     # default value
PAO.SplitTailNorm              F     # default value
PAO.FixSplitTable              F     # default value
PAO.NewSplitCode              F     # default value
Vna.Filter              F     # default value
FilterCutoff          0.000000000     Ry     # default value
FilterTol          0.000000000     Ry     # default value
KB.Rmax          6.000000000     Bohr     # default value
PAO.EnergyShift         0.7349798845E-02         Ry
# above item originally: PAO.EnergyShift         0.1000000000     eV        
PAO.SplitTailNorm              F     # default value
PAO.FixSplitTable              F     # default value
PAO.NewSplitCode              F     # default value
PAO.Filter              F     # default value
PAO.Filter              F     # default value
PAO.Filter              F     # default value
PAO.Filter              F     # default value
PAO.Filter              F     # default value
PAO.OldStylePolorbs              T     # default value
PAO.SplitTailNorm              F     # default value
PAO.FixSplitTable              F     # default value
PAO.NewSplitCode              F     # default value
Vna.Filter              F     # default value
PCC.Filter              F     # default value
FilterCutoff          0.000000000     Ry     # default value
FilterTol          0.000000000     Ry     # default value
KB.Rmax          6.000000000     Bohr     # default value
PAO.EnergyShift         0.7349798845E-02         Ry
# above item originally: PAO.EnergyShift         0.1000000000     eV        
PAO.SplitTailNorm              F     # default value
PAO.FixSplitTable              F     # default value
PAO.NewSplitCode              F     # default value
PAO.Filter              F     # default value
PAO.Keep.Findp.Bug              F     # default value
PAO.Filter              F     # default value
PAO.Filter              F     # default value
PAO.Filter              F     # default value
PAO.OldStylePolorbs              T     # default value
PAO.SplitTailNorm              F     # default value
PAO.FixSplitTable              F     # default value
PAO.NewSplitCode              F     # default value
PAO.Filter              F     # default value
Vna.Filter              F     # default value
PCC.Filter              F     # default value
FilterCutoff          0.000000000     Ry     # default value
FilterTol          0.000000000     Ry     # default value
KB.Rmax          6.000000000     Bohr     # default value
PAO.EnergyShift         0.7349798845E-02         Ry
# above item originally: PAO.EnergyShift         0.1000000000     eV        
PAO.SplitTailNorm              F     # default value
PAO.FixSplitTable              F     # default value
PAO.NewSplitCode              F     # default value
PAO.Filter              F     # default value
PAO.Filter              F     # default value
PAO.Filter              F     # default value
PAO.Filter              F     # default value
PAO.OldStylePolorbs              T     # default value
PAO.SplitTailNorm              F     # default value
PAO.FixSplitTable              F     # default value
PAO.NewSplitCode              F     # default value
PAO.Filter              F     # default value
Vna.Filter              F     # default value
PCC.Filter              F     # default value
FilterCutoff          0.000000000     Ry     # default value
FilterTol          0.000000000     Ry     # default value
KB.Rmax          6.000000000     Bohr     # default value
PAO.EnergyShift         0.7349798845E-02         Ry
# above item originally: PAO.EnergyShift         0.1000000000     eV        
PAO.SplitTailNorm              F     # default value
PAO.FixSplitTable              F     # default value
PAO.NewSplitCode              F     # default value
PAO.Filter              F     # default value
PAO.Filter              F     # default value
PAO.Filter              F     # default value
PAO.Filter              F     # default value
PAO.OldStylePolorbs              T     # default value
PAO.SplitTailNorm              F     # default value
PAO.FixSplitTable              F     # default value
PAO.NewSplitCode              F     # default value
PAO.Filter              F     # default value
Vna.Filter              F     # default value
PCC.Filter              F     # default value
PAO.BasisType     split          # default value
Atom-Setup-Only              F     # default value
UseStructFile              F     # default value
MD.UseStructFile              F     # default value
LatticeConstant          1.889726878           Bohr
# above item originally: LatticeConstant          1.000000000     Ang       
%block LatticeVectors
     11.975725345373620     0.000000000000000     0.000000000000000
     0.000000000000000     10.371282377926580     0.000000000000000
     0.000000000000000     0.000000000000000     57.333623994331909
AtomicCoordinatesFormat     Ang                                                                             
NumberOfAtoms             67
ZM.UnitsLength     Bohr           # default value
ZM.UnitsAngle     rad            # default value
ZM.ForceTolLength         0.1555740000E-02 Ry/Bohr     # default value
ZM.ForceTolAngle         0.3565490000E-02 Ry/rad     # default value
ZM.MaxDisplLength         0.2000000000     Bohr     # default value
ZM.MaxDisplAngle         0.3000000000E-02 rad     # default value
ZM.CalcAllForces              F     # default value
%block AtomicCoordinatesAndAtomicSpecies
     -0.001820638     -0.124733424     24.821300433 5
      2.964185062     -0.127930234     24.806757815 5
      5.930325805     -0.127185264     24.830339362 5
      8.904220201     -0.124168752     24.840547154 5
      1.480746454      2.445340133     24.801831191 5
      4.450660544      2.445387036     24.807496437 5
      7.421104691      2.444697956     24.844316074 5
     10.389327049      2.448342634     24.815452233 5
     -0.003793473      5.019748540     24.797326416 5
      2.963677544      5.020570888     24.780161877 5
      5.930763001      5.019237324     24.832041012 5
      8.907999899      5.016220255     24.848943781 5
      1.482233954      7.589976808     24.800016861 5
      4.445903799      7.591131237     24.798930485 5
      7.412578697      7.590572502     24.861827082 5
     10.390457257      7.588537060     24.829293729 5
      1.474565745      0.801806804     27.353547536 5
      4.446817659      0.797832673     27.359302556 5
      7.415967399      0.801242832     27.384541210 5
     10.386736115      0.807196086     27.362686176 5
     -0.010929915      3.369037469     27.339081135 5
      2.967647196      3.376366932     27.322929359 5
      5.934436399      3.373462559     27.367508351 5
      8.898107281      3.375102019     27.396981332 5
      1.478048014      5.953350509     27.327027967 5
      4.444116155      5.950399214     27.353387138 5
      7.415018639      5.940943877     27.392303152 5
     10.394919778      5.940116054     27.377930205 5
      0.005930454      8.510345365     27.354714671 5
      2.956282199      8.518525274     27.362930168 5
      5.924376778      8.517018157     27.386069082 5
      8.899585929      8.514116691     27.371367115 5
     -0.012193032      1.703679410     29.843557527 3
      2.962610069      1.704017974     29.803267281 3
      5.935760189      1.698808365     29.850929311 3
      8.905220790      1.690881644     29.877720459 3
      1.475307949      4.292831466     29.774771744 3
      4.448589084      4.277379280     29.823885666 3
      7.416840033      4.259152463     29.893045824 3
     10.383473937      4.264497279     29.861143838 3
     -0.014338077      6.841590179     29.846211400 3
      2.968663534      6.849143278     29.835051708 3
      5.934294897      6.839398203     29.870036413 3
      8.898308599      6.828792563     29.876596341 3
      1.470250910      9.419201257     29.851585759 3
      4.457122737      9.416545825     29.847301234 3
      7.419661444      9.405174908     29.875766201 3
     10.368737147      9.401867872     29.801581400 3
     -0.123589713      0.045249423     32.383043850 3
      2.971529051      0.112627888     32.403102663 3
      5.924854820      0.123364018     32.535832383 3
      8.848311305      0.102040063     32.565664807 3
      1.516405650      2.753199755     32.349725465 3
      4.469662700      2.701053073     32.465022429 3
      7.419564888      2.668721630     32.561625519 3
     10.398345918      2.675880729     32.512496746 3
     -0.039411819      5.251249646     32.482775734 3
      2.989195314      5.287914867     32.474183756 3
      5.946557519      5.260171258     32.529050266 3
      8.888083152      5.232144447     32.561986577 3
      1.451643684      7.815120828     32.455756261 3
      4.432233594      7.848835848     32.521402285 3
      7.387837153      7.823045493     32.535330953 3
     10.340001213      7.791545707     32.545945975 3
      0.508614963      1.165931900     35.149358867 2
      1.042418087      1.785408845     35.240470891 1
     -0.183112867      1.564711211     34.912465824 1
UseSaveData              F
MD.UseSaveXV              F
MD.UseSaveZM              F     # default value
WriteCoorInitial              T     # default value
MD.TypeOfRun     CG                                                                              
MaxBondDistance          6.000000000     Bohr     # default value
Output-Structure-Only              F     # default value
WriteCoorXmol              F
#:physical? MaxWalltime              F
MaxWalltime         0.1797693135+309     # default value
#:physical? MaxWalltime.Slack              F
MaxWalltime.Slack          5.000000000         # default value
SpinPolarized              F     # default value
NonCollinearSpin              F     # default value
HSetupOnly              F     # default value
LongOutput              F     # default value
WriteDenchar              F     # default value
WriteMullikenPop              0
WriteHirshfeldPop              F
WriteVoronoiPop              F
PartialChargesAtEveryGeometry              F     # default value
PartialChargesAtEveryScfStep              F     # default value
MeshCutoff          699.9937475             Ry
# above item originally: MeshCutoff          9523.985109     eV        
NetCharge          0.000000000         # default value
MinSCFIterations              0
MaxSCFIterations            500
SCFMustConverge              T
MixHamiltonian              F     # default value
TS.MixH              F     # default value
MixCharge              F     # default value
Compat-pre-v4-DM-H              F     # default value
SCF.MixAfterConvergence              F     # default value
SCF.Recompute-H-After-Scf              F     # default value
DM.NumberPulay              3
DM.NumberBroyden         0     # default value
DM.FIRE.Mixing              F     # default value
DM.MixSCF1              F     # default value
DM.PulayOnFile              F     # default value
DM.Pulay.Avoid.First.After.Kick              F     # default value
DM.MixingWeight         0.3000000000E-01
DM.OccupancyTolerance         0.1000000000E-11     # default value
DM.NumberKick         0     # default value
DM.KickMixingWeight         0.5000000000         # default value
DM.Tolerance         0.1000000000E-03
DM.RequireEnergyConvergence              F     # default value
DM.EnergyTolerance         0.7349806700E-06 Ry     # default value
DM.RequireHarrisConvergence              F     # default value
DM.HarrisTolerance         0.7349806700E-06 Ry     # default value
MonitorForcesInSCF              F     # default value
UseSaveData              F
DM.UseSaveDM              F
NeglNonOverlapInt              F     # default value
SolutionMethod     diagon                                                                          
Diag.DivideAndConquer              T     # default value
Diag.Memory          1.000000000         # default value
ElectronicTemperature         0.3674899422E-02         Ry
# above item originally: ElectronicTemperature          50.00000000     meV       
FixSpin              F     # default value
ON.MaxNumIter      1000     # default value
ON.etol         0.1000000000E-07     # default value
ON.eta          0.000000000     Ry     # default value
ON.eta_alpha          0.000000000     Ry     # default value
ON.eta_beta          0.000000000     Ry     # default value
On.RcLWF          9.500000000     Bohr     # default value
ON.UseSaveLWF              F     # default value
ON.functional     kim     # default value
ON.ChemicalPotentialUse              F     # default value
ON.ChemicalPotential              F     # default value
ON.ChemicalPotentialRc          9.500000000     Bohr     # default value
ON.ChemicalPotentialTemperature         0.5000000000E-01 Ry     # default value
ON.ChemicalPotentialOrder       100     # default value
MD.VariableCell              F     # default value
compat-pre-v4-dynamics              F     # default value
MD.TypeOfRun     CG                                                                              
MD.UseSaveCG              F     # default value
Optim.Broyden              F     # default value
MD.NumCGsteps         0     # default value
MD.MaxCGDispl         0.2000000000     Bohr     # default value
MD.MaxForceTol         0.1555739508E-02    Ry/Bohr
# above item originally: MD.MaxForceTol         0.4000000000E-01 eV/Ang    
MD.MaxStressTol         0.6797730000E-04 Ry/Bohr**3     # default value
GeometryMustConverge              F     # default value
MD.InitialTimeStep         1     # default value
MD.FinalTimeStep         1     # default value
MD.LengthTimeStep          1.000000000     fs     # default value
MD.Quench              F     # default value
MD.FireQuench              F     # default value
MD.InitialTemperature          0.000000000     K     # default value
MD.TargetTemperature          0.000000000     K     # default value
MD.TargetPressure          0.000000000     Ry/Bohr**3     # default value
MD.NoseMass          100.0000000     Ry*fs**2     # default value
MD.ParrinelloRahmanMass          100.0000000     Ry*fs**2     # default value
MD.AnnealOption     TemperatureAndPressure     # default value
MD.TauRelax          100.0000000     fs     # default value
MD.BulkModulus         0.6797730000E-02 Ry/Bohr**3     # default value
MD.FCDispl         0.4000000000E-01 Bohr     # default value
MD.FCfirst         1     # default value
MD.FClast        67     # default value
UseSpatialDecomposition              F     # default value
UseDomainDecomposition              F     # default value
Harris_functional              F     # default value
WriteKpoints              F
WriteForces              T
WriteDM              T     # default value
WriteDM.NetCDF              F     # default value
WriteDM.History.NetCDF              F     # default value
WriteDMHS.NetCDF              F     # default value
WriteDMHS.History.NetCDF              F     # default value
SCF.Read.Charge.NetCDF              F     # default value
SCF.Read.Deformation.Charge.NetCDF              F     # default value
SaveInitialChargeDensity              F     # default value
AnalyzeChargeDensityOnly              F     # default value
UseNewDiagk              F     # default value
WriteBands              F     # default value
WriteKbands              F
WriteEigenvalues              T
WriteCoorStep              F
WriteMDhistory              F
WriteMDXmol              T
UseSaveData              F
SaveHS              F
FixAuxiliaryCell              F     # default value
NaiveAuxiliaryCell              F     # default value
ReInitialiseDM              T     # default value
DM.AllowReuse              T     # default value
DM.AllowExtrapolation              T     # default value
DM.NormalizationTolerance         0.1000000000E-04     # default value
DM.NormalizeDuringSCF              T     # default value
MullikenInSCF              F     # default value
WarningMinimumAtomicDistance          1.000000000     Bohr     # default value
BornCharge              F     # default value
ChangeKgridInMD              F     # default value
Diag.ParallelOverK              F     # default value
MD.RelaxCellOnly              F     # default value
MD.RemoveIntraMolecularPressure              F     # default value
COOP.Write              F     # default value
SaveRho              F
SaveDeltaRho              F
SaveRhoXC              F     # default value
SaveElectrostaticPotential              F
SaveNeutralAtomPotential              F     # default value
SaveTotalPotential              F
SaveIonicCharge              F     # default value
SaveBaderCharge              F     # default value
SaveTotalCharge              F     # default value
Siesta2Wannier90.WriteMmn              F     # default value
Siesta2Wannier90.WriteUnk              F     # default value
Siesta2Wannier90.WriteAmn              F     # default value
Siesta2Wannier90.WriteEig              F     # default value
Siesta2Wannier90.NumberOfBandsUp         0     # default value
Siesta2Wannier90.NumberOfBandsDown         0     # default value
Siesta2Wannier90.NumberOfBands         0     # default value
RcSpatial          0.000000000     Bohr     # default value
ProcessorGridX         1     # default value
ProcessorGridY         1     # default value
ProcessorGridZ         1     # default value
processorY         4     # default value
blocksize        24     # default value
NumberOfEigenStates       983     # default value
TimeReversalSymmetryForKpoints              T     # default value
%block kgrid_Monkhorst_Pack
      1       0       0  0.0
      0       1       0  0.0
      0       0       1  0.0
LongOutput              F     # default value
WriteWaveFunctions              F
ForceAuxCell              F     # default value
AtomicCoordinatesFormat     Ang                                                                             
AtomCoorFormatOut     Ang                        # default value
LatticeConstant          1.889726878           Bohr
# above item originally: LatticeConstant          1.000000000     Ang       
%block DM.InitSpin
SCF.Pulay.Damping         -1.000000000         # default value
SCF.MixingWeightAfterPulay         0.5000000000         # default value
SCF.PulayMinimumHistory         2     # default value
SCF.PulayDmaxRegion          1000.000000         # default value
SCF.LinearMixingAfterPulay              F     # default value
SCF.Pulay.UseSVD              F     # default value
SCF.Pulay.DebugSVD              T     # default value
SCF.Pulay.RcondSVD         0.1000000000E-07     # default value
MeshSubDivisions         2     # default value
LatticeConstant          1.889726878           Bohr
# above item originally: LatticeConstant          1.000000000     Ang       
%block LatticeVectors
     11.975725345373620     0.000000000000000     0.000000000000000
     0.000000000000000     10.371282377926580     0.000000000000000
     0.000000000000000     0.000000000000000     57.333623994331909
PROCS_PER_NODE         4     # default value
PROCS_PER_NODE         4     # default value
DirectPhi              F     # default value
SimulateDoping              F     # default value
SlabDipoleCorrection              F     # default value
Diag.ParallelOverK              F     # default value
LatticeConstant          1.889726878           Bohr
# above item originally: LatticeConstant          1.000000000     Ang       
%block LatticeVectors
     11.975725345373620     0.000000000000000     0.000000000000000
     0.000000000000000     10.371282377926580     0.000000000000000
     0.000000000000000     0.000000000000000     57.333623994331909
Diag.AllInOne              F     # default value
Diag.DivideAndConquer              T     # default value
Diag.NoExpert              F     # default value
Diag.PreRotate              F     # default value
Diag.Use2D              T     # default value
SingleExcitation              F     # default value
OccupationFunction     FD     # default value
OccupationFunction     FD     # default value
SCF.Want.Variational.EKS              F     # default value
DM.FormattedFiles              F     # default value
DM.FormattedInput              F     # default value
DM.FormattedOutput              F     # default value
SCF.Want.Variational.EKS              F     # default value
SCF.Want.Variational.EKS              F     # default value
SCF.Want.Variational.EKS              F     # default value
SCF.Want.Variational.EKS              F     # default value
SCF.Want.Variational.EKS              F     # default value
SCF.Want.Variational.EKS              F     # default value
SCF.Want.Variational.EKS              F     # default value
SCF.Want.Variational.EKS              F     # default value
SCF.Want.Variational.EKS              F     # default value
SCF.Want.Variational.EKS              F     # default value
SCF.Want.Variational.EKS              F     # default value
SCF.Want.Variational.EKS              F     # default value
SCF.Want.Variational.EKS              F     # default value
SCF.Want.Variational.EKS              F     # default value
SCF.Want.Variational.EKS              F     # default value
SCF.Want.Variational.EKS              F     # default value
SCF.Want.Variational.EKS              F     # default value
SCF.Want.Variational.EKS              F     # default value
SCF.Want.Variational.EKS              F     # default value
SCF.Want.Variational.EKS              F     # default value
SCF.Want.Variational.EKS              F     # default value
SCF.Want.Variational.EKS              F     # default value
SCF.Want.Variational.EKS              F     # default value
SCF.Want.Variational.EKS              F     # default value
SCF.Want.Variational.EKS              F     # default value
SCF.Want.Variational.EKS              F     # default value
SCF.Want.Variational.EKS              F     # default value
SCF.Want.Variational.EKS              F     # default value
SCF.Want.Variational.EKS              F     # default value
SCF.Want.Variational.EKS              F     # default value
SCF.Want.Variational.EKS              F     # default value
SCF.Want.Variational.EKS              F     # default value
SCF.Want.Variational.EKS              F     # default value
SCF.Want.Variational.EKS              F     # default value
SCF.Want.Variational.EKS              F     # default value
SCF.Want.Variational.EKS              F     # default value
SCF.Want.Variational.EKS              F     # default value
SCF.Want.Variational.EKS              F     # default value
SCF.Want.Variational.EKS              F     # default value
SCF.Want.Variational.EKS              F     # default value
SCF.Want.Variational.EKS              F     # default value
SCF.Want.Variational.EKS              F     # default value
SCF.Want.Variational.EKS              F     # default value
SCF.Want.Variational.EKS              F     # default value
SCF.Want.Variational.EKS              F     # default value
SCF.Want.Variational.EKS              F     # default value
SCF.Want.Variational.EKS              F     # default value
SCF.Want.Variational.EKS              F     # default value
SCF.Want.Variational.EKS              F     # default value
SCF.Want.Variational.EKS              F     # default value
SCF.Want.Variational.EKS              F     # default value
SCF.Want.Variational.EKS              F     # default value
SCF.Want.Variational.EKS              F     # default value
SCF.Want.Variational.EKS              F     # default value
SCF.Want.Variational.EKS              F     # default value
SCF.Want.Variational.EKS              F     # default value
SCF.Want.Variational.EKS              F     # default value
SCF.Want.Variational.EKS              F     # default value
SCF.Want.Variational.EKS              F     # default value
SCF.Want.Variational.EKS              F     # default value
SCF.Want.Variational.EKS              F     # default value
SCF.Want.Variational.EKS              F     # default value
SCF.Want.Variational.EKS              F     # default value
SCF.Want.Variational.EKS              F     # default value
SCF.Want.Variational.EKS              F     # default value
SCF.Want.Variational.EKS              F     # default value
SCF.Want.Variational.EKS              F     # default value
SCF.Want.Variational.EKS              F     # default value
SCF.Want.Variational.EKS              F     # default value
SCF.Want.Variational.EKS              F     # default value
SCF.Want.Variational.EKS              F     # default value
SCF.Want.Variational.EKS              F     # default value
SCF.Want.Variational.EKS              F     # default value
SCF.Want.Variational.EKS              F     # default value
SCF.Want.Variational.EKS              F     # default value
SCF.Want.Variational.EKS              F     # default value
SCF.Want.Variational.EKS              F     # default value
SCF.Want.Variational.EKS              F     # default value
#:list? Grid.CellSampling              F
WriteCoorXmol              F
WriteCoorCerius              F     # default value
BasisPressure         0.2000000000     GPa     # default value
OpticalCalculation              F     # default value
