Siesta Version: siesta-4.0--530
Architecture  : x86_64-unknown-linux-gnu--unknown
Compiler flags: /opt/spack/opt/spack/linux-centos7-x86_64/gcc-8.3.0/openmpi-3.1.3-zvzp4an3k2mmb7andyregxqllnueyg4jo/bin/mpif90 -g -O2
PP flags      : -DMPI -DFC_HAVE_FLUSH -DFC_HAVE_ABORT -DCDF 
PARALLEL version
NetCDF support

* Running on   32 nodes in parallel
>> Start of run:  10-APR-2024   2:53:15

                           ***********************       
                           *  WELCOME TO SIESTA  *       
                           ***********************       

reinit: Reading from standard input
************************** Dump of input data file ****************************
SystemName	geometry-7
SystemLabel	geometry-7
DM.MixingWeight	0.03
DM.NumberPulay	3
DM.Tolerance	1.d-4
DM.UseSaveDM	F
ElectronicTemperature	50 meV
MD.MaxForceTol	0.04 eV/Ang
MD.Steps	0
MD.TypeOfRun	CG
MD.UseSaveXV	F
MaxSCFIterations	500
MinSCFIterations	0
SCF.MustConverge	T
SaveDeltaRho	F
SaveElectrostaticPotential	F
SaveHS	F
SaveRho	F
SaveTotalPotential	F
SolutionMethod	diagon
Spin	non-polarized
Spin.Total	0
UseSaveData	F
WriteCoorStep	F
WriteCoorXmol	F
WriteEigenvalues	T
WriteForces	T
WriteHirshfeldPop	F
WriteKbands	F
WriteKpoints	F
WriteMDXmol	T
WriteMDhistory	F
WriteMullikenPop	0
WriteVoronoiPop	F
WriteWaveFunctions	F
SCFMustConverge	True
Spin     	non-polarized
XC.functional	GGA
XC.authors	PBE
MeshCutoff	9523.985108528535	eV
PAO.EnergyShift	0.1	eV
NumberOfSpecies	5
NumberOfAtoms	67
%block ChemicalSpecieslabel
    1 1 H.1
    2 8 O.2
    3 79 Au.gga.3
    4 79 Au.gga.4
    5 79 Au.gga.5
%endblock ChemicalSpecieslabel
%block PAO.Basis
H.1 2 0.46527
            n=1 0 2 E 99.93138 2.59932
            4.20357 1.84463
            n=2 1 1 E 24.56504 2.20231
            3.52816
O.2 3 -0.24233
            n=2 0 2 E 23.36061 3.39721
            4.50769 2.64066
            n=2 1 2 E 2.78334 5.14253
            6.14996 2.59356
            n=3 2 1 E 63.98188 0.16104
            3.54403
Au.gga.4 2
            n=6 0 2 P 1
            7.24700 5.71500
            n=5 2 2
            5.10700 2.83800
Au.gga.5 2
            n=6 0 2 P 1
            9.07500 5.78700
            n=5 2 2
            6.55700 2.87400
%endblock PAO.Basis
%block PAO.BasisSizes
    Au.gga.3	DZP
%endblock PAO.BasisSizes
LatticeConstant	1.0 Ang
%block LatticeVectors
    11.975725345373620     0.000000000000000     0.000000000000000
    0.000000000000000     10.371282377926580     0.000000000000000
    0.000000000000000     0.000000000000000     57.333623994331909
%endblock LatticeVectors
AtomicCoordinatesFormat  Ang
%block AtomicCoordinatesAndAtomicSpecies
    -0.001820638     -0.124733424     24.821300433 5
     2.964185062     -0.127930234     24.806757815 5
     5.930325805     -0.127185264     24.830339362 5
     8.904220201     -0.124168752     24.840547154 5
     1.480746454      2.445340133     24.801831191 5
     4.450660544      2.445387036     24.807496437 5
     7.421104691      2.444697956     24.844316074 5
    10.389327049      2.448342634     24.815452233 5
    -0.003793473      5.019748540     24.797326416 5
     2.963677544      5.020570888     24.780161877 5
     5.930763001      5.019237324     24.832041012 5
     8.907999899      5.016220255     24.848943781 5
     1.482233954      7.589976808     24.800016861 5
     4.445903799      7.591131237     24.798930485 5
     7.412578697      7.590572502     24.861827082 5
    10.390457257      7.588537060     24.829293729 5
     1.474565745      0.801806804     27.353547536 5
     4.446817659      0.797832673     27.359302556 5
     7.415967399      0.801242832     27.384541210 5
    10.386736115      0.807196086     27.362686176 5
    -0.010929915      3.369037469     27.339081135 5
     2.967647196      3.376366932     27.322929359 5
     5.934436399      3.373462559     27.367508351 5
     8.898107281      3.375102019     27.396981332 5
     1.478048014      5.953350509     27.327027967 5
     4.444116155      5.950399214     27.353387138 5
     7.415018639      5.940943877     27.392303152 5
    10.394919778      5.940116054     27.377930205 5
     0.005930454      8.510345365     27.354714671 5
     2.956282199      8.518525274     27.362930168 5
     5.924376778      8.517018157     27.386069082 5
     8.899585929      8.514116691     27.371367115 5
    -0.012193032      1.703679410     29.843557527 3
     2.962610069      1.704017974     29.803267281 3
     5.935760189      1.698808365     29.850929311 3
     8.905220790      1.690881644     29.877720459 3
     1.475307949      4.292831466     29.774771744 3
     4.448589084      4.277379280     29.823885666 3
     7.416840033      4.259152463     29.893045824 3
    10.383473937      4.264497279     29.861143838 3
    -0.014338077      6.841590179     29.846211400 3
     2.968663534      6.849143278     29.835051708 3
     5.934294897      6.839398203     29.870036413 3
     8.898308599      6.828792563     29.876596341 3
     1.470250910      9.419201257     29.851585759 3
     4.457122737      9.416545825     29.847301234 3
     7.419661444      9.405174908     29.875766201 3
    10.368737147      9.401867872     29.801581400 3
    -0.123589713      0.045249423     32.383043850 3
     2.971529051      0.112627888     32.403102663 3
     5.924854820      0.123364018     32.535832383 3
     8.848311305      0.102040063     32.565664807 3
     1.516405650      2.753199755     32.349725465 3
     4.469662700      2.701053073     32.465022429 3
     7.419564888      2.668721630     32.561625519 3
    10.398345918      2.675880729     32.512496746 3
    -0.039411819      5.251249646     32.482775734 3
     2.989195314      5.287914867     32.474183756 3
     5.946557519      5.260171258     32.529050266 3
     8.888083152      5.232144447     32.561986577 3
     1.451643684      7.815120828     32.455756261 3
     4.432233594      7.848835848     32.521402285 3
     7.387837153      7.823045493     32.535330953 3
    10.340001213      7.791545707     32.545945975 3
     0.508614963      1.165931900     35.149358867 2
     1.042418087      1.785408845     35.240470891 1
    -0.203112867      1.564711211     34.932465824 1
%endblock AtomicCoordinatesAndAtomicSpecies
%block DM.InitSpin
%endblock DM.InitSpin
DM.UseSaveDM	True
#KPoint grid
%block kgrid_Monkhorst_Pack
     1       0       0  0.0
     0       1       0  0.0
     0       0       1  0.0
%endblock kgrid_Monkhorst_Pack
************************** End of input data file *****************************
*** WARNING:  FDF module: fdf_read: block DM.InitSpin is empty...

reinit: -----------------------------------------------------------------------
reinit: System Name: geometry-7
reinit: -----------------------------------------------------------------------
reinit: System Label: geometry-7                                                  
reinit: -----------------------------------------------------------------------

initatom: Reading input for the pseudopotentials and atomic orbitals ----------
 Species number:            1  Label: H.1 Atomic number:           1
 Species number:            2  Label: O.2 Atomic number:           8
 Species number:            3  Label: Au.gga.3 Atomic number:          79
 Species number:            4  Label: Au.gga.4 Atomic number:          79
 Species number:            5  Label: Au.gga.5 Atomic number:          79
Ground state valence configuration:   1s01
Reading pseudopotential information in formatted form from H.1.psf

Valence configuration for pseudopotential generation:
1s( 1.00) rc: 1.25
2p( 0.00) rc: 1.25
3d( 0.00) rc: 1.25
4f( 0.00) rc: 1.25
Ground state valence configuration:   2s02  2p04
Reading pseudopotential information in formatted form from O.2.psf

Valence configuration for pseudopotential generation:
2s( 2.00) rc: 1.14
2p( 4.00) rc: 1.14
3d( 0.00) rc: 1.14
4f( 0.00) rc: 1.14
Ground state valence configuration:   6s01  5d10
Reading pseudopotential information in formatted form from Au.gga.3.psf

Pseudopotential generated from a relativistic atomic calculation
There are spin-orbit pseudopotentials available
Spin-orbit interaction is not included in this calculation

Valence configuration for pseudopotential generation:
6s( 1.00) rc: 2.32
6p( 0.50) rc: 2.29
5d( 9.50) rc: 2.24
5f( 0.00) rc: 2.00
Ground state valence configuration:   6s01  5d10
Reading pseudopotential information in formatted form from Au.gga.4.psf

Pseudopotential generated from a relativistic atomic calculation
There are spin-orbit pseudopotentials available
Spin-orbit interaction is not included in this calculation

Valence configuration for pseudopotential generation:
6s( 1.00) rc: 2.32
6p( 0.50) rc: 2.29
5d( 9.50) rc: 2.24
5f( 0.00) rc: 2.00
Ground state valence configuration:   6s01  5d10
Reading pseudopotential information in formatted form from Au.gga.5.psf

Pseudopotential generated from a relativistic atomic calculation
There are spin-orbit pseudopotentials available
Spin-orbit interaction is not included in this calculation

Valence configuration for pseudopotential generation:
6s( 1.00) rc: 2.32
6p( 0.50) rc: 2.29
5d( 9.50) rc: 2.24
5f( 0.00) rc: 2.00
resizes: Read basis size for species Au.gga.3 = dzp                 
For H.1, standard SIESTA heuristics set lmxkb to 2
 (one more than the basis l, including polarization orbitals).
Use PS.lmax or PS.KBprojectors blocks to override.
For O.2, standard SIESTA heuristics set lmxkb to 3
 (one more than the basis l, including polarization orbitals).
Use PS.lmax or PS.KBprojectors blocks to override.
For Au.gga.3, standard SIESTA heuristics set lmxkb to 3
 (one more than the basis l, including polarization orbitals).
Use PS.lmax or PS.KBprojectors blocks to override.
For Au.gga.4, standard SIESTA heuristics set lmxkb to 3
 (one more than the basis l, including polarization orbitals).
Use PS.lmax or PS.KBprojectors blocks to override.
 Warning: Empty PAO shell. l =           1
 Will have a KB projector anyway...
For Au.gga.5, standard SIESTA heuristics set lmxkb to 3
 (one more than the basis l, including polarization orbitals).
Use PS.lmax or PS.KBprojectors blocks to override.
 Warning: Empty PAO shell. l =           1
 Will have a KB projector anyway...

<basis_specs>
===============================================================================
H.1                  Z=   1    Mass=  1.0100        Charge= 0.46527    
Lmxo=1 Lmxkb= 2    BasisType=split      Semic=F
L=0  Nsemic=0  Cnfigmx=1
          n=1  nzeta=2  polorb=0
            splnorm:   0.15000    
               vcte:    99.931    
               rinn:    2.5993    
               qcoe:    0.0000    
               qyuk:    0.0000    
               qwid:   0.10000E-01
                rcs:    4.2036      1.8446    
            lambdas:    1.0000      1.0000    
L=1  Nsemic=0  Cnfigmx=2
          n=1  nzeta=1  polorb=0
            splnorm:   0.15000    
               vcte:    24.565    
               rinn:    2.2023    
               qcoe:    0.0000    
               qyuk:    0.0000    
               qwid:   0.10000E-01
                rcs:    3.5282    
            lambdas:    1.0000    
-------------------------------------------------------------------------------
L=0  Nkbl=1  erefs: 0.17977+309
L=1  Nkbl=1  erefs: 0.17977+309
L=2  Nkbl=1  erefs: 0.17977+309
===============================================================================
</basis_specs>

atom: Called for H.1                   (Z =   1)

read_vps: Pseudopotential generation method:
read_vps: ATM3      Troullier-Martins                       
Total valence charge:    1.00000

xc_check: Exchange-correlation functional:
xc_check: GGA Perdew, Burke & Ernzerhof 1996
V l=0 = -2*Zval/r beyond r=  1.2343
V l=1 = -2*Zval/r beyond r=  1.2189
V l=2 = -2*Zval/r beyond r=  1.2189
All V_l potentials equal beyond r=  1.2343
This should be close to max(r_c) in ps generation
All pots = -2*Zval/r beyond r=  1.2343

VLOCAL1: 99.0% of the norm of Vloc inside     28.493 Ry
VLOCAL1: 99.9% of the norm of Vloc inside     64.935 Ry
atom: Maximum radius for 4*pi*r*r*local-pseudopot. charge    1.45251
atom: Maximum radius for r*vlocal+2*Zval:    1.21892
GHOST: No ghost state for L =  0
GHOST: No ghost state for L =  1
GHOST: No ghost state for L =  2

KBgen: Kleinman-Bylander projectors: 
   l= 0   rc=  1.364359   el= -0.477200   Ekb= -2.021939   kbcos= -0.344793
   l= 1   rc=  1.434438   el=  0.001076   Ekb= -0.443447   kbcos= -0.022843
   l= 2   rc=  1.470814   el=  0.002010   Ekb= -0.140543   kbcos= -0.002863

KBgen: Total number of  Kleinman-Bylander projectors:    9
atom: -------------------------------------------------------------------------

atom: SANKEY-TYPE ORBITALS:
atom: Selected multiple-zeta basis: split     

atom: basis set generated (by rescaling the valence charge)
atom: for a cation of charge   0.4653

SPLIT: Orbitals with angular momentum L= 0

SPLIT: Basis orbitals for state 1s

   izeta = 1
                 lambda =    1.000000
                     rc =    4.260636
                 energy =   -0.870244
                kinetic =    1.359204
    potential(screened) =   -2.229448
       potential(ionic) =   -2.289196

   izeta = 2
                 rmatch =    1.865767
              splitnorm =    0.575659
                 energy =    0.485405
                kinetic =    4.355632
    potential(screened) =   -3.870227
       potential(ionic) =   -3.839117

SPLIT: Orbitals with angular momentum L= 1

SPLIT: Basis orbitals for state 2p

   izeta = 1
                 lambda =    1.000000
                     rc =    3.576223
                 energy =    0.828629
                kinetic =    2.006518
    potential(screened) =   -1.177889
       potential(ionic) =   -1.299048
atom: Total number of Sankey-type orbitals:  5

atm_pop: Valence configuration (for local Pseudopot. screening):
 1s( 1.00)                                                            
 2p( 0.00)                                                            
Vna: chval, zval:    1.00000   1.00000

Vna:  Cut-off radius for the neutral-atom potential:   4.260636

atom: _________________________________________________________________________

<basis_specs>
===============================================================================
O.2                  Z=   8    Mass=  16.000        Charge=-0.24233    
Lmxo=2 Lmxkb= 3    BasisType=split      Semic=F
L=0  Nsemic=0  Cnfigmx=2
          n=1  nzeta=2  polorb=0
            splnorm:   0.15000    
               vcte:    23.361    
               rinn:    3.3972    
               qcoe:    0.0000    
               qyuk:    0.0000    
               qwid:   0.10000E-01
                rcs:    4.5077      2.6407    
            lambdas:    1.0000      1.0000    
L=1  Nsemic=0  Cnfigmx=2
          n=1  nzeta=2  polorb=0
            splnorm:   0.15000    
               vcte:    2.7833    
               rinn:    5.1425    
               qcoe:    0.0000    
               qyuk:    0.0000    
               qwid:   0.10000E-01
                rcs:    6.1500      2.5936    
            lambdas:    1.0000      1.0000    
L=2  Nsemic=0  Cnfigmx=3
          n=1  nzeta=1  polorb=0
            splnorm:   0.15000    
               vcte:    63.982    
               rinn:   0.16104    
               qcoe:    0.0000    
               qyuk:    0.0000    
               qwid:   0.10000E-01
                rcs:    3.5440    
            lambdas:    1.0000    
-------------------------------------------------------------------------------
L=0  Nkbl=1  erefs: 0.17977+309
L=1  Nkbl=1  erefs: 0.17977+309
L=2  Nkbl=1  erefs: 0.17977+309
L=3  Nkbl=1  erefs: 0.17977+309
===============================================================================
</basis_specs>

atom: Called for O.2                   (Z =   8)

read_vps: Pseudopotential generation method:
read_vps:  ATM3      Troullier-Martins                      
Total valence charge:    6.00000

read_vps: Pseudopotential includes a core correction:
read_vps: Pseudo-core for xc-correction

xc_check: Exchange-correlation functional:
xc_check: GGA Perdew, Burke & Ernzerhof 1996
V l=0 = -2*Zval/r beyond r=  1.1278
V l=1 = -2*Zval/r beyond r=  1.1278
V l=2 = -2*Zval/r beyond r=  1.1278
V l=3 = -2*Zval/r beyond r=  1.1278
All V_l potentials equal beyond r=  1.1278
This should be close to max(r_c) in ps generation
All pots = -2*Zval/r beyond r=  1.1278

VLOCAL1: 99.0% of the norm of Vloc inside     34.126 Ry
VLOCAL1: 99.9% of the norm of Vloc inside     77.774 Ry
atom: Maximum radius for 4*pi*r*r*local-pseudopot. charge    1.37759
atom: Maximum radius for r*vlocal+2*Zval:    1.18566
GHOST: No ghost state for L =  0
GHOST: No ghost state for L =  1
GHOST: No ghost state for L =  2
GHOST: No ghost state for L =  3

KBgen: Kleinman-Bylander projectors: 
   l= 0   rc=  1.262145   el= -1.757696   Ekb=  9.224596   kbcos=  0.328556
   l= 1   rc=  1.262145   el= -0.664256   Ekb= -7.912306   kbcos= -0.392969
   l= 2   rc=  1.343567   el=  0.002031   Ekb= -1.926788   kbcos= -0.003514
   l= 3   rc=  1.394919   el=  0.003153   Ekb= -0.739398   kbcos= -0.000358

KBgen: Total number of  Kleinman-Bylander projectors:   16
atom: -------------------------------------------------------------------------

atom: SANKEY-TYPE ORBITALS:
atom: Selected multiple-zeta basis: split     

atom: basis set generated (by rescaling the valence charge)
atom: for an anion of charge  -0.2423

SPLIT: Orbitals with angular momentum L= 0

SPLIT: Basis orbitals for state 2s

   izeta = 1
                 lambda =    1.000000
                     rc =    4.574469
                 energy =   -1.754696
                kinetic =    1.490911
    potential(screened) =   -3.245607
       potential(ionic) =  -11.056427

   izeta = 2
                 rmatch =    2.639108
              splitnorm =    0.147030
                 energy =   -1.549984
                kinetic =    2.329575
    potential(screened) =   -3.879559
       potential(ionic) =  -12.330999

SPLIT: Orbitals with angular momentum L= 1

SPLIT: Basis orbitals for state 2p

   izeta = 1
                 lambda =    1.000000
                     rc =    6.174996
                 energy =   -0.657402
                kinetic =    4.283935
    potential(screened) =   -4.941337
       potential(ionic) =  -12.290306

   izeta = 2
                 rmatch =    2.639108
              splitnorm =    0.214868
                 energy =   -0.410830
                kinetic =    7.128181
    potential(screened) =   -7.539011
       potential(ionic) =  -16.115673

SPLIT: Orbitals with angular momentum L= 2

SPLIT: Basis orbitals for state 3d

   izeta = 1
                 lambda =    1.000000
                     rc =    3.562532
                 energy =    3.658839
                kinetic =    6.488139
    potential(screened) =   -2.829300
       potential(ionic) =  -10.001503
atom: Total number of Sankey-type orbitals: 13

atm_pop: Valence configuration (for local Pseudopot. screening):
 2s( 2.00)                                                            
 2p( 4.00)                                                            
 3d( 0.00)                                                            
Vna: chval, zval:    6.00000   6.00000

Vna:  Cut-off radius for the neutral-atom potential:   6.174996
comcore: Pseudo-core radius Rcore=  1.377587

atom: _________________________________________________________________________

<basis_specs>
===============================================================================
Au.gga.3             Z=  79    Mass=  196.97        Charge= 0.17977+309
Lmxo=2 Lmxkb= 3    BasisType=split      Semic=F
L=0  Nsemic=0  Cnfigmx=6
          n=1  nzeta=2  polorb=1
            splnorm:   0.15000    
               vcte:    0.0000    
               rinn:    0.0000    
               qcoe:    0.0000    
               qyuk:    0.0000    
               qwid:   0.10000E-01
                rcs:    0.0000      0.0000    
            lambdas:    1.0000      1.0000    
L=1  Nsemic=0  Cnfigmx=6
L=2  Nsemic=0  Cnfigmx=5
          n=1  nzeta=2  polorb=0
            splnorm:   0.15000    
               vcte:    0.0000    
               rinn:    0.0000    
               qcoe:    0.0000    
               qyuk:    0.0000    
               qwid:   0.10000E-01
                rcs:    0.0000      0.0000    
            lambdas:    1.0000      1.0000    
-------------------------------------------------------------------------------
L=0  Nkbl=1  erefs: 0.17977+309
L=1  Nkbl=1  erefs: 0.17977+309
L=2  Nkbl=1  erefs: 0.17977+309
L=3  Nkbl=1  erefs: 0.17977+309
===============================================================================
</basis_specs>

atom: Called for Au.gga.3              (Z =  79)

read_vps: Pseudopotential generation method:
read_vps: ATM3      Troullier-Martins                       
Total valence charge:   11.00000

read_vps: Pseudopotential includes a core correction:
read_vps: Pseudo-core for xc-correction

xc_check: Exchange-correlation functional:
xc_check: GGA Perdew, Burke & Ernzerhof 1996
V l=0 = -2*Zval/r beyond r=  2.9833
V l=1 = -2*Zval/r beyond r=  2.9833
V l=2 = -2*Zval/r beyond r=  2.9833
V l=3 = -2*Zval/r beyond r=  2.9833
All V_l potentials equal beyond r=  2.2946
This should be close to max(r_c) in ps generation
All pots = -2*Zval/r beyond r=  2.9833
Using large-core scheme for Vlocal

atom: Estimated core radius    2.98333
atom: Maximum radius for 4*pi*r*r*local-pseudopot. charge    3.25614
atom: Maximum radius for r*vlocal+2*Zval:    3.02086
GHOST: No ghost state for L =  0
GHOST: No ghost state for L =  1
GHOST: No ghost state for L =  2
GHOST: No ghost state for L =  3

KBgen: Kleinman-Bylander projectors: 
   l= 0   rc=  2.382235   el= -0.513519   Ekb=  5.087925   kbcos=  0.278237
   l= 1   rc=  2.382235   el= -0.109829   Ekb=  2.881759   kbcos=  0.226107
   l= 2   rc=  2.382235   el= -0.663286   Ekb= -4.434057   kbcos= -0.694733
   l= 3   rc=  2.382235   el=  0.003083   Ekb= -2.571105   kbcos= -0.013009

KBgen: Total number of  Kleinman-Bylander projectors:   16
atom: -------------------------------------------------------------------------

atom: SANKEY-TYPE ORBITALS:
atom: Selected multiple-zeta basis: split     

SPLIT: Orbitals with angular momentum L= 0

SPLIT: Basis orbitals for state 6s

SPLIT: PAO cut-off radius determined from an
SPLIT: energy shift=  0.007350 Ry

   izeta = 1
                 lambda =    1.000000
                     rc =    6.723087
                 energy =   -0.506600
                kinetic =    0.398622
    potential(screened) =   -0.905223
       potential(ionic) =   -8.548368

   izeta = 2
                 rmatch =    5.643738
              splitnorm =    0.150000
                 energy =   -0.431591
                kinetic =    0.653484
    potential(screened) =   -1.085075
       potential(ionic) =   -9.245123

SPLIT: Orbitals with angular momentum L= 2

SPLIT: Basis orbitals for state 5d

SPLIT: PAO cut-off radius determined from an
SPLIT: energy shift=  0.007350 Ry

   izeta = 1
                 lambda =    1.000000
                     rc =    4.737670
                 energy =   -0.656650
                kinetic =    5.068938
    potential(screened) =   -5.725588
       potential(ionic) =  -16.071180

   izeta = 2
                 rmatch =    2.802581
              splitnorm =    0.150000
                 energy =   -0.349126
                kinetic =    7.097014
    potential(screened) =   -7.446140
       potential(ionic) =  -18.531204

POLgen: Perturbative polarization orbital with L=  1

POLgen: Polarization orbital for state 6s

   izeta = 1
                     rc =    6.723087
                 energy =   -0.153149
                kinetic =    0.703267
    potential(screened) =   -0.856416
       potential(ionic) =   -8.074316
atom: Total number of Sankey-type orbitals: 15

atm_pop: Valence configuration (for local Pseudopot. screening):
 6s( 1.00)                                                            
 6p( 0.00)                                                            
 5d(10.00)                                                            
Vna: chval, zval:   11.00000  11.00000

Vna:  Cut-off radius for the neutral-atom potential:   6.723087
comcore: Pseudo-core radius Rcore=  3.977066

atom: _________________________________________________________________________

<basis_specs>
===============================================================================
Au.gga.4             Z=  79    Mass=  196.97        Charge= 0.17977+309
Lmxo=2 Lmxkb= 3    BasisType=split      Semic=F
L=0  Nsemic=0  Cnfigmx=6
          n=1  nzeta=2  polorb=1
            splnorm:   0.15000    
               vcte:    0.0000    
               rinn:    0.0000    
               qcoe:    0.0000    
               qyuk:    0.0000    
               qwid:   0.10000E-01
                rcs:    7.2470      5.7150    
            lambdas:    1.0000      1.0000    
L=1  Nsemic=0  Cnfigmx=6
L=2  Nsemic=0  Cnfigmx=5
          n=1  nzeta=2  polorb=0
            splnorm:   0.15000    
               vcte:    0.0000    
               rinn:    0.0000    
               qcoe:    0.0000    
               qyuk:    0.0000    
               qwid:   0.10000E-01
                rcs:    5.1070      2.8380    
            lambdas:    1.0000      1.0000    
-------------------------------------------------------------------------------
L=0  Nkbl=1  erefs: 0.17977+309
L=1  Nkbl=1  erefs: 0.17977+309
L=2  Nkbl=1  erefs: 0.17977+309
L=3  Nkbl=1  erefs: 0.17977+309
===============================================================================
</basis_specs>

atom: Called for Au.gga.4              (Z =  79)

read_vps: Pseudopotential generation method:
read_vps: ATM3      Troullier-Martins                       
Total valence charge:   11.00000

read_vps: Pseudopotential includes a core correction:
read_vps: Pseudo-core for xc-correction

xc_check: Exchange-correlation functional:
xc_check: GGA Perdew, Burke & Ernzerhof 1996
V l=0 = -2*Zval/r beyond r=  2.9833
V l=1 = -2*Zval/r beyond r=  2.9833
V l=2 = -2*Zval/r beyond r=  2.9833
V l=3 = -2*Zval/r beyond r=  2.9833
All V_l potentials equal beyond r=  2.2946
This should be close to max(r_c) in ps generation
All pots = -2*Zval/r beyond r=  2.9833
Using large-core scheme for Vlocal

atom: Estimated core radius    2.98333
atom: Maximum radius for 4*pi*r*r*local-pseudopot. charge    3.25614
atom: Maximum radius for r*vlocal+2*Zval:    3.02086
GHOST: No ghost state for L =  0
GHOST: No ghost state for L =  1
GHOST: No ghost state for L =  2
GHOST: No ghost state for L =  3

KBgen: Kleinman-Bylander projectors: 
   l= 0   rc=  2.382235   el= -0.513519   Ekb=  5.087925   kbcos=  0.278237
   l= 1   rc=  2.382235   el= -0.109829   Ekb=  2.881759   kbcos=  0.226107
   l= 2   rc=  2.382235   el= -0.663286   Ekb= -4.434057   kbcos= -0.694733
   l= 3   rc=  2.382235   el=  0.003083   Ekb= -2.571105   kbcos= -0.013009

KBgen: Total number of  Kleinman-Bylander projectors:   16
atom: -------------------------------------------------------------------------

atom: SANKEY-TYPE ORBITALS:
atom: Selected multiple-zeta basis: split     

SPLIT: Orbitals with angular momentum L= 0

SPLIT: Basis orbitals for state 6s

   izeta = 1
                 lambda =    1.000000
                     rc =    7.246712
                 energy =   -0.510007
                kinetic =    0.385781
    potential(screened) =   -0.895788
       potential(ionic) =   -8.490322

   izeta = 2
                 rmatch =    5.786611
              splitnorm =    0.137361
                 energy =   -0.445151
                kinetic =    0.623150
    potential(screened) =   -1.068301
       potential(ionic) =   -9.190366

SPLIT: Orbitals with angular momentum L= 2

SPLIT: Basis orbitals for state 5d

   izeta = 1
                 lambda =    1.000000
                     rc =    5.106662
                 energy =   -0.659762
                kinetic =    5.025587
    potential(screened) =   -5.685349
       potential(ionic) =  -16.000690

   izeta = 2
                 rmatch =    2.873530
              splitnorm =    0.141056
                 energy =   -0.387690
                kinetic =    6.936955
    potential(screened) =   -7.324646
       potential(ionic) =  -18.374036

POLgen: Perturbative polarization orbital with L=  1

POLgen: Polarization orbital for state 6s

   izeta = 1
                     rc =    7.246712
                 energy =   -0.163164
                kinetic =    0.676967
    potential(screened) =   -0.840131
       potential(ionic) =   -7.980465
atom: Total number of Sankey-type orbitals: 15

atm_pop: Valence configuration (for local Pseudopot. screening):
 6s( 1.00)                                                            
 6p( 0.00)                                                            
 5d(10.00)                                                            
Vna: chval, zval:   11.00000  11.00000

Vna:  Cut-off radius for the neutral-atom potential:   7.246712
comcore: Pseudo-core radius Rcore=  3.977066

atom: _________________________________________________________________________

<basis_specs>
===============================================================================
Au.gga.5             Z=  79    Mass=  196.97        Charge= 0.17977+309
Lmxo=2 Lmxkb= 3    BasisType=split      Semic=F
L=0  Nsemic=0  Cnfigmx=6
          n=1  nzeta=2  polorb=1
            splnorm:   0.15000    
               vcte:    0.0000    
               rinn:    0.0000    
               qcoe:    0.0000    
               qyuk:    0.0000    
               qwid:   0.10000E-01
                rcs:    9.0750      5.7870    
            lambdas:    1.0000      1.0000    
L=1  Nsemic=0  Cnfigmx=6
L=2  Nsemic=0  Cnfigmx=5
          n=1  nzeta=2  polorb=0
            splnorm:   0.15000    
               vcte:    0.0000    
               rinn:    0.0000    
               qcoe:    0.0000    
               qyuk:    0.0000    
               qwid:   0.10000E-01
                rcs:    6.5570      2.8740    
            lambdas:    1.0000      1.0000    
-------------------------------------------------------------------------------
L=0  Nkbl=1  erefs: 0.17977+309
L=1  Nkbl=1  erefs: 0.17977+309
L=2  Nkbl=1  erefs: 0.17977+309
L=3  Nkbl=1  erefs: 0.17977+309
===============================================================================
</basis_specs>

atom: Called for Au.gga.5              (Z =  79)

read_vps: Pseudopotential generation method:
read_vps: ATM3      Troullier-Martins                       
Total valence charge:   11.00000

read_vps: Pseudopotential includes a core correction:
read_vps: Pseudo-core for xc-correction

xc_check: Exchange-correlation functional:
xc_check: GGA Perdew, Burke & Ernzerhof 1996
V l=0 = -2*Zval/r beyond r=  2.9833
V l=1 = -2*Zval/r beyond r=  2.9833
V l=2 = -2*Zval/r beyond r=  2.9833
V l=3 = -2*Zval/r beyond r=  2.9833
All V_l potentials equal beyond r=  2.2946
This should be close to max(r_c) in ps generation
All pots = -2*Zval/r beyond r=  2.9833
Using large-core scheme for Vlocal

atom: Estimated core radius    2.98333
atom: Maximum radius for 4*pi*r*r*local-pseudopot. charge    3.25614
atom: Maximum radius for r*vlocal+2*Zval:    3.02086
GHOST: No ghost state for L =  0
GHOST: No ghost state for L =  1
GHOST: No ghost state for L =  2
GHOST: No ghost state for L =  3

KBgen: Kleinman-Bylander projectors: 
   l= 0   rc=  2.382235   el= -0.513519   Ekb=  5.087925   kbcos=  0.278237
   l= 1   rc=  2.382235   el= -0.109829   Ekb=  2.881759   kbcos=  0.226107
   l= 2   rc=  2.382235   el= -0.663286   Ekb= -4.434057   kbcos= -0.694733
   l= 3   rc=  2.382235   el=  0.003083   Ekb= -2.571105   kbcos= -0.013009

KBgen: Total number of  Kleinman-Bylander projectors:   16
atom: -------------------------------------------------------------------------

atom: SANKEY-TYPE ORBITALS:
atom: Selected multiple-zeta basis: split     

SPLIT: Orbitals with angular momentum L= 0

SPLIT: Basis orbitals for state 6s

   izeta = 1
                 lambda =    1.000000
                     rc =    9.075230
                 energy =   -0.513232
                kinetic =    0.370471
    potential(screened) =   -0.883703
       potential(ionic) =   -8.414024

   izeta = 2
                 rmatch =    5.786611
              splitnorm =    0.148012
                 energy =   -0.446211
                kinetic =    0.620438
    potential(screened) =   -1.066649
       potential(ionic) =   -9.184844

SPLIT: Orbitals with angular momentum L= 2

SPLIT: Basis orbitals for state 5d

   izeta = 1
                 lambda =    1.000000
                     rc =    6.557093
                 energy =   -0.663050
                kinetic =    4.966809
    potential(screened) =   -5.629858
       potential(ionic) =  -15.898967

   izeta = 2
                 rmatch =    2.873530
              splitnorm =    0.149391
                 energy =   -0.387750
                kinetic =    6.936394
    potential(screened) =   -7.324143
       potential(ionic) =  -18.373423

POLgen: Perturbative polarization orbital with L=  1

POLgen: Polarization orbital for state 6s

   izeta = 1
                     rc =    9.075230
                 energy =   -0.175654
                kinetic =    0.640919
    potential(screened) =   -0.816572
       potential(ionic) =   -7.839035
atom: Total number of Sankey-type orbitals: 15

atm_pop: Valence configuration (for local Pseudopot. screening):
 6s( 1.00)                                                            
 6p( 0.00)                                                            
 5d(10.00)                                                            
Vna: chval, zval:   11.00000  11.00000

Vna:  Cut-off radius for the neutral-atom potential:   9.075230
comcore: Pseudo-core radius Rcore=  3.977066

atom: _________________________________________________________________________

prinput: Basis input ----------------------------------------------------------

PAO.BasisType split     

%block ChemicalSpeciesLabel
    1    1 H.1                     # Species index, atomic number, species label
    2    8 O.2                     # Species index, atomic number, species label
    3   79 Au.gga.3                # Species index, atomic number, species label
    4   79 Au.gga.4                # Species index, atomic number, species label
    5   79 Au.gga.5                # Species index, atomic number, species label
%endblock ChemicalSpeciesLabel

%block PAO.Basis                 # Define Basis set
H.1                   2   0.465            # Label, l-shells, ionic net charge
 n=1   0   2                         # n, l, Nzeta 
   4.261      1.866   
   1.000      1.000   
 n=2   1   1                         # n, l, Nzeta 
   3.576   
   1.000   
O.2                   3  -0.242            # Label, l-shells, ionic net charge
 n=2   0   2                         # n, l, Nzeta 
   4.574      2.639   
   1.000      1.000   
 n=2   1   2                         # n, l, Nzeta 
   6.175      2.639   
   1.000      1.000   
 n=3   2   1                         # n, l, Nzeta 
   3.563   
   1.000   
Au.gga.3              2                    # Species label, number of l-shells
 n=6   0   2 P   1                   # n, l, Nzeta, Polarization, NzetaPol
   6.723      5.644   
   1.000      1.000   
 n=5   2   2                         # n, l, Nzeta 
   4.738      2.803   
   1.000      1.000   
Au.gga.4              2                    # Species label, number of l-shells
 n=6   0   2 P   1                   # n, l, Nzeta, Polarization, NzetaPol
   7.247      5.787   
   1.000      1.000   
 n=5   2   2                         # n, l, Nzeta 
   5.107      2.874   
   1.000      1.000   
Au.gga.5              2                    # Species label, number of l-shells
 n=6   0   2 P   1                   # n, l, Nzeta, Polarization, NzetaPol
   9.075      5.787   
   1.000      1.000   
 n=5   2   2                         # n, l, Nzeta 
   6.557      2.874   
   1.000      1.000   
%endblock PAO.Basis

prinput: ----------------------------------------------------------------------

Dumping basis to NetCDF file H.1.ion.nc
Dumping basis to NetCDF file O.2.ion.nc
Dumping basis to NetCDF file Au.gga.3.ion.nc
Dumping basis to NetCDF file Au.gga.4.ion.nc
Dumping basis to NetCDF file Au.gga.5.ion.nc
coor:   Atomic-coordinates input format  =     Cartesian coordinates
coor:                                          (in Angstroms)

siesta: Atomic coordinates (Bohr) and species
siesta:     -0.00344  -0.23571  46.90548  5        1
siesta:      5.60150  -0.24175  46.87800  5        2
siesta:     11.20670  -0.24035  46.92256  5        3
siesta:     16.82654  -0.23465  46.94185  5        4
siesta:      2.79821   4.62102  46.86869  5        5
siesta:      8.41053   4.62111  46.87939  5        6
siesta:     14.02386   4.61981  46.94897  5        7
siesta:     19.63299   4.62670  46.89443  5        8
siesta:     -0.00717   9.48595  46.86017  5        9
siesta:      5.60054   9.48751  46.82774  5       10
siesta:     11.20752   9.48499  46.92578  5       11
siesta:     16.83369   9.47929  46.95772  5       12
siesta:      2.80102  14.34298  46.86526  5       13
siesta:      8.40154  14.34516  46.86321  5       14
siesta:     14.00775  14.34411  46.98206  5       15
siesta:     19.63513  14.34026  46.92058  5       16
siesta:      2.78653   1.51520  51.69073  5       17
siesta:      8.40327   1.50769  51.70161  5       18
siesta:     14.01415   1.51413  51.74930  5       19
siesta:     19.62809   1.52538  51.70800  5       20
siesta:     -0.02065   6.36656  51.66340  5       21
siesta:      5.60804   6.38041  51.63287  5       22
siesta:     11.21446   6.37492  51.71712  5       23
siesta:     16.81499   6.37802  51.77281  5       24
siesta:      2.79311  11.25021  51.64062  5       25
siesta:      8.39817  11.24463  51.69043  5       26
siesta:     14.01236  11.22676  51.76397  5       27
siesta:     19.64356  11.22520  51.73681  5       28
siesta:      0.01121  16.08223  51.69294  5       29
siesta:      5.58657  16.09769  51.70846  5       30
siesta:     11.19545  16.09484  51.75219  5       31
siesta:     16.81779  16.08936  51.72441  5       32
siesta:     -0.02304   3.21949  56.39617  3       33
siesta:      5.59852   3.22013  56.32004  3       34
siesta:     11.21697   3.21028  56.41010  3       35
siesta:     16.82844   3.19530  56.46073  3       36
siesta:      2.78793   8.11228  56.26619  3       37
siesta:      8.40662   8.08308  56.35900  3       38
siesta:     14.01580   8.04863  56.48969  3       39
siesta:     19.62193   8.05874  56.42941  3       40
siesta:     -0.02710  12.92874  56.40119  3       41
siesta:      5.60996  12.94301  56.38010  3       42
siesta:     11.21420  12.92459  56.44621  3       43
siesta:     16.81537  12.90455  56.45861  3       44
siesta:      2.77837  17.79972  56.41134  3       45
siesta:      8.42274  17.79470  56.40325  3       46
siesta:     14.02113  17.77321  56.45704  3       47
siesta:     19.59408  17.76696  56.31685  3       48
siesta:     -0.23355   0.08551  61.19511  3       49
siesta:      5.61538   0.21284  61.23301  3       50
siesta:     11.19636   0.23312  61.48384  3       51
siesta:     16.72089   0.19283  61.54021  3       52
siesta:      2.86559   5.20280  61.13215  3       53
siesta:      8.44644   5.10425  61.35003  3       54
siesta:     14.02095   5.04315  61.53258  3       55
siesta:     19.65003   5.05668  61.43974  3       56
siesta:     -0.07448   9.92343  61.38357  3       57
siesta:      5.64876   9.99271  61.36734  3       58
siesta:     11.23737   9.94029  61.47102  3       59
siesta:     16.79605   9.88732  61.53326  3       60
siesta:      2.74321  14.76844  61.33251  3       61
siesta:      8.37571  14.83216  61.45657  3       62
siesta:     13.96099  14.78342  61.48289  3       63
siesta:     19.53978  14.72389  61.50295  3       64
siesta:      0.96114   2.20329  66.42269  2       65
siesta:      1.96989   3.37394  66.59487  1       66
siesta:     -0.38383   2.95688  66.01282  1       67

siesta: System type = slab      

initatomlists: Number of atoms, orbitals, and projectors:     67   983  1058

siesta: ******************** Simulation parameters ****************************
siesta:
siesta: The following are some of the parameters of the simulation.
siesta: A complete list of the parameters used, including default values,
siesta: can be found in file out.fdf
siesta:
redata: Non-Collinear-spin run           =     F
redata: SpinPolarized (Up/Down) run      =     F
redata: Number of spin components        =     1
redata: Long output                      =     F
redata: Number of Atomic Species         =        5
redata: Charge density info will appear in .RHO file
redata: Write Mulliken Pop.              =     NO
redata: Mesh Cutoff                      =   699.9937  Ry
redata: Net charge of the system         =     0.0000 |e|
redata: Min. number of SCF Iter          =        0
redata: Max. number of SCF Iter          =      500
redata: SCF convergence failure will abort job
redata: Mix DM or H after convergence    =     F
redata: Recompute H after scf cycle      =     F
redata: Performing Pulay mixing using    =     3 iterations
redata: Mix DM in first SCF step ?       =     F
redata: Write Pulay info on disk?        =     F
redata: Discard 1st Pulay DM after  kick =     F
redata: New DM Mixing Weight             =     0.0300
redata: New DM Occupancy tolerance       = 0.000000000001
redata: No kicks to SCF
redata: DM Mixing Weight for Kicks       =     0.5000
redata: DM Tolerance for SCF             =     0.000100
redata: Require (free) Energy convergence in SCF =     F
redata: DM (free)Energy tolerance for SCF =     0.000010 eV
redata: Require Harris convergence for SCF =     F
redata: DM Harris energy tolerance for SCF =     0.000010 eV
redata: Using Saved Data (generic)   =     F
redata: Use continuation files for DM    =     F
redata: Neglect nonoverlap interactions  =     F
redata: Method of Calculation            =     Diagonalization
redata: Divide and Conquer               =     T
redata: Electronic Temperature           =     0.0037  Ry
redata: Fix the spin of the system       =     F
redata: Dynamics option                  =     Single-point calculation
redata: ***********************************************************************
Total number of electrons:   712.000000
Total ionic charge:   712.000000

* ProcessorY, Blocksize:    4  24


* Orbital distribution balance (max,min):    48    24

 Kpoints in:            1 . Kpoints trimmed:            1

siesta: k-grid: Number of k-points =     1
siesta: k-grid: Cutoff (effective) =     5.186 Ang
siesta: k-grid: Supercell and displacements
siesta: k-grid:    1   0   0      0.000
siesta: k-grid:    0   1   0      0.000
siesta: k-grid:    0   0   1      0.000

                     ====================================
                        Single-point calculation
                     ====================================

outcell: Unit cell vectors (Ang):
       11.975725    0.000000    0.000000
        0.000000   10.371282    0.000000
        0.000000    0.000000   57.333624

outcell: Cell vector modules (Ang)   :   11.975725   10.371282   57.333624
outcell: Cell angles (23,13,12) (deg):     90.0000     90.0000     90.0000
outcell: Cell volume (Ang**3)        :   7121.0442
 Folding of H and S is implicitly performed
New_DM. Step:     1
Initializing Density Matrix...

initdm: WARNING: DM.InitSpin not used because nspin < 2
New grid distribution:   1
           1       1:   96    1:   23    1:   60
           2       1:   96    1:   23   61:  120
           3       1:   96    1:   23  121:  180
           4       1:   96    1:   23  181:  240
           5       1:   96    1:   23  241:  300
           6       1:   96    1:   23  301:  360
           7       1:   96    1:   23  361:  420
           8       1:   96    1:   23  421:  480
           9       1:   96   24:   46    1:   60
          10       1:   96   24:   46   61:  120
          11       1:   96   24:   46  121:  180
          12       1:   96   24:   46  181:  240
          13       1:   96   24:   46  241:  300
          14       1:   96   24:   46  301:  360
          15       1:   96   24:   46  361:  420
          16       1:   96   24:   46  421:  480
          17       1:   96   47:   68    1:   60
          18       1:   96   47:   68   61:  120
          19       1:   96   47:   68  121:  180
          20       1:   96   47:   68  181:  240
          21       1:   96   47:   68  241:  300
          22       1:   96   47:   68  301:  360
          23       1:   96   47:   68  361:  420
          24       1:   96   47:   68  421:  480
          25       1:   96   69:   90    1:   60
          26       1:   96   69:   90   61:  120
          27       1:   96   69:   90  121:  180
          28       1:   96   69:   90  181:  240
          29       1:   96   69:   90  241:  300
          30       1:   96   69:   90  301:  360
          31       1:   96   69:   90  361:  420
          32       1:   96   69:   90  421:  480

InitMesh: MESH =   192 x   180 x   960 =    33177600
InitMesh: (bp) =    96 x    90 x   480 =     4147200
InitMesh: Mesh cutoff (required, used) =   699.994   710.396 Ry
ExtMesh (bp) on 0 =   252 x   191 x   224 =    10781568
New grid distribution:   2
           1      48:   96    1:   45    1:  205
           2       1:   48    1:   45  206:  214
           3       1:   48   46:   90  215:  221
           4      49:   96    1:   45  236:  244
           5      49:   96    1:   45  245:  256
           6       1:   48    1:   44  257:  480
           7      49:   96   46:   90  236:  244
           8       1:   48   46:   90  229:  235
           9       1:   47    1:   45    1:  205
          10      49:   96   46:   90  206:  214
          11       1:   48    1:   45  229:  235
          12       1:   48    1:   45  236:  244
          13       1:   48    1:   45  245:  256
          14      49:   96    1:   44  257:  480
          15      49:   96    1:   45  206:  214
          16      49:   96    1:   45  229:  235
          17      48:   96   46:   90    1:  205
          18      49:   96   46:   90  215:  221
          19      49:   96   46:   90  229:  235
          20       1:   48   46:   90  236:  244
          21      49:   96   46:   90  245:  256
          22       1:   48   45:   90  257:  480
          23      49:   96    1:   45  215:  221
          24      49:   96    1:   45  222:  228
          25       1:   47   46:   90    1:  205
          26       1:   48    1:   45  222:  228
          27       1:   48   46:   90  222:  228
          28       1:   48   46:   90  206:  214
          29       1:   48   46:   90  245:  256
          30      49:   96   45:   90  257:  480
          31       1:   48    1:   45  215:  221
          32      49:   96   46:   90  222:  228
New grid distribution:   3
           1       1:   48    1:   45    1:  186
           2       1:   48    1:   45  255:  271
           3      49:   96   46:   90  187:  203
           4       1:   48    1:   45  187:  203
           5      49:   96    1:   45  255:  271
           6      47:   96    1:   41  289:  480
           7       1:   48    1:   45  272:  288
           8       1:   48    1:   45  238:  254
           9      49:   96    1:   45    1:  186
          10      49:   96   46:   90  272:  288
          11       1:   48   46:   90  272:  288
          12       1:   48   46:   90  187:  203
          13      49:   96    1:   45  238:  254
          14       1:   46    1:   37  289:  480
          15       1:   48    1:   45  204:  220
          16      49:   96   46:   90  221:  237
          17      49:   96   46:   90    1:  186
          18      49:   96   46:   90  204:  220
          19       1:   48   46:   90  238:  254
          20      49:   96   46:   90  238:  254
          21       1:   48   46:   90  255:  271
          22      47:   96   42:   90  289:  480
          23      49:   96    1:   45  204:  220
          24       1:   48   46:   90  221:  237
          25       1:   48   46:   90    1:  186
          26      49:   96    1:   45  272:  288
          27       1:   48    1:   45  221:  237
          28       1:   48   46:   90  204:  220
          29      49:   96   46:   90  255:  271
          30       1:   46   38:   90  289:  480
          31      49:   96    1:   45  187:  203
          32      49:   96    1:   45  221:  237
Setting up quadratic distribution...
ExtMesh (bp) on 0 =   205 x   213 x   369 =    16112385
PhiOnMesh: Number of (b)points on node 0 =               452025
PhiOnMesh: nlist on node 0 =              3625315

stepf: Fermi-Dirac step function

siesta: Program's energy decomposition (eV):
siesta: Ebs     =     -3484.284569
siesta: Eions   =     74448.861464
siesta: Ena     =      3164.407213
siesta: Ekin    =     44340.467594
siesta: Enl     =    -18464.464427
siesta: DEna    =         0.000048
siesta: DUscf   =         0.000000
siesta: DUext   =         0.000000
siesta: Exc     =    -46061.058522
siesta: eta*DQ  =         0.000000
siesta: Emadel  =         0.000000
siesta: Emeta   =         0.000000
siesta: Emolmec =         0.000000
siesta: Ekinion =         0.000000
siesta: Eharris =    -91685.922380
siesta: Etot    =    -91469.509558
siesta: FreeEng =    -91469.969359

   scf: iscf   Eharris(eV)      E_KS(eV)   FreeEng(eV)    dDmax  Ef(eV)
   scf:    1   -91685.9224   -91469.5096   -91469.9694  1.63019 -1.3752
timer: Routine,Calls,Time,% =    IterSCF     1       8.257  29.84
   scf:    2  -105009.3629   -90994.7647   -90995.0024191.43841-12.5599
   scf:    3   -91665.8357   -91475.4402   -91475.6869  1.37955 -1.9343
   scf:    4   -91646.8843   -91484.0106   -91484.3256  1.24525 -2.2960
   scf:    5   -91601.2633   -91510.8055   -91511.1267  0.74602 -3.5404
   scf:    6   -91581.7430   -91526.3439   -91526.5810  0.51357 -4.2487
   scf:    7   -91578.1731   -91532.8237   -91532.9845  0.55375 -4.4279
   scf:    8   -91577.3719   -91538.6693   -91538.7916  0.49500 -4.3438
   scf:    9   -91578.8528   -91550.5767   -91550.7048  0.27942 -3.7207
   scf:   10   -91578.6697   -91554.1069   -91554.2353  0.22855 -3.6750
   scf:   11   -91578.0888   -91562.6364   -91562.7341  0.13484 -3.6740
   scf:   12   -91577.8366   -91566.8696   -91566.9646  0.10772 -3.7297
   scf:   13   -91576.9239   -91568.7031   -91568.8139  0.08000 -4.0515
   scf:   14   -91576.9863   -91570.4383   -91570.5552  0.06374 -4.1063
   scf:   15   -91576.9475   -91574.2215   -91574.3369  0.04589 -4.0766
   scf:   16   -91576.8877   -91575.8205   -91575.9323  0.03977 -4.0351
   scf:   17   -91576.8537   -91576.0969   -91576.2055  0.03569 -3.9988
   scf:   18   -91576.8445   -91575.4255   -91575.5325  0.03288 -3.9870
   scf:   19   -91576.8337   -91574.8125   -91574.9197  0.03092 -3.9995
   scf:   20   -91576.8168   -91574.5483   -91574.6569  0.02946 -4.0307
   scf:   21   -91576.8143   -91574.6935   -91574.8031  0.02827 -4.0455
   scf:   22   -91576.8200   -91575.6394   -91575.7501  0.02470 -4.0548
   scf:   23   -91576.8182   -91576.0545   -91576.1650  0.02270 -4.0485
   scf:   24   -91576.8134   -91576.5097   -91576.6190  0.01909 -4.0286
   scf:   25   -91576.8130   -91576.5257   -91576.6347  0.01771 -4.0272
   scf:   26   -91576.8120   -91576.3417   -91576.4508  0.01524 -4.0372
   scf:   27   -91576.8098   -91576.2470   -91576.3564  0.01444 -4.0449
   scf:   28   -91576.8068   -91576.1572   -91576.2670  0.01349 -4.0546
   scf:   29   -91576.8064   -91576.1891   -91576.2990  0.01299 -4.0547
   scf:   30   -91576.8068   -91576.2968   -91576.4066  0.01228 -4.0507
   scf:   31   -91576.8070   -91576.4520   -91576.5616  0.01132 -4.0460
   scf:   32   -91576.8071   -91576.5925   -91576.7020  0.01019 -4.0450
   scf:   33   -91576.8068   -91576.6832   -91576.7929  0.00891 -4.0492
   scf:   34   -91576.8065   -91576.6916   -91576.8014  0.00816 -4.0529
   scf:   35   -91576.8059   -91576.6309   -91576.7409  0.00702 -4.0582
   scf:   36   -91576.8058   -91576.5958   -91576.7058  0.00652 -4.0582
   scf:   37   -91576.8059   -91576.5733   -91576.6830  0.00608 -4.0548
   scf:   38   -91576.8060   -91576.5829   -91576.6926  0.00586 -4.0534
   scf:   39   -91576.8060   -91576.6348   -91576.7445  0.00525 -4.0522
   scf:   40   -91576.8060   -91576.6663   -91576.7760  0.00485 -4.0531
   scf:   41   -91576.8058   -91576.7073   -91576.8171  0.00421 -4.0556
   scf:   42   -91576.8057   -91576.7245   -91576.8344  0.00374 -4.0571
   scf:   43   -91576.8057   -91576.7318   -91576.8416  0.00321 -4.0575
   scf:   44   -91576.8058   -91576.7257   -91576.8355  0.00298 -4.0563
   scf:   45   -91576.8059   -91576.7196   -91576.8293  0.00286 -4.0553
   scf:   46   -91576.8059   -91576.7152   -91576.8249  0.00274 -4.0547
   scf:   47   -91576.8058   -91576.7165   -91576.8262  0.00260 -4.0549
   scf:   48   -91576.8058   -91576.7255   -91576.8353  0.00235 -4.0561
   scf:   49   -91576.8057   -91576.7349   -91576.8447  0.00214 -4.0567
   scf:   50   -91576.8057   -91576.7577   -91576.8675  0.00167 -4.0571
   scf:   51   -91576.8058   -91576.7677   -91576.8775  0.00146 -4.0567
   scf:   52   -91576.8058   -91576.7737   -91576.8835  0.00129 -4.0557
   scf:   53   -91576.8058   -91576.7746   -91576.8843  0.00122 -4.0553
   scf:   54   -91576.8058   -91576.7744   -91576.8842  0.00114 -4.0554
   scf:   55   -91576.8058   -91576.7751   -91576.8848  0.00109 -4.0558
   scf:   56   -91576.8058   -91576.7770   -91576.8868  0.00101 -4.0563
   scf:   57   -91576.8058   -91576.7794   -91576.8892  0.00094 -4.0564
   scf:   58   -91576.8058   -91576.7833   -91576.8931  0.00084 -4.0564
   scf:   59   -91576.8058   -91576.7863   -91576.8961  0.00076 -4.0560
   scf:   60   -91576.8058   -91576.7891   -91576.8988  0.00068 -4.0558
   scf:   61   -91576.8058   -91576.7919   -91576.9016  0.00058 -4.0557
   scf:   62   -91576.8058   -91576.7937   -91576.9034  0.00052 -4.0559
   scf:   63   -91576.8058   -91576.7950   -91576.9048  0.00047 -4.0562
   scf:   64   -91576.8058   -91576.7956   -91576.9053  0.00045 -4.0563
   scf:   65   -91576.8058   -91576.7962   -91576.9060  0.00041 -4.0564
   scf:   66   -91576.8058   -91576.7965   -91576.9063  0.00039 -4.0563
   scf:   67   -91576.8058   -91576.7973   -91576.9070  0.00035 -4.0561
   scf:   68   -91576.8058   -91576.7980   -91576.9077  0.00032 -4.0560
   scf:   69   -91576.8058   -91576.7995   -91576.9093  0.00025 -4.0561
   scf:   70   -91576.8058   -91576.8003   -91576.9101  0.00022 -4.0562
   scf:   71   -91576.8058   -91576.8011   -91576.9109  0.00019 -4.0563
   scf:   72   -91576.8058   -91576.8015   -91576.9112  0.00018 -4.0564
   scf:   73   -91576.8058   -91576.8017   -91576.9114  0.00017 -4.0563
   scf:   74   -91576.8058   -91576.8017   -91576.9115  0.00017 -4.0563
   scf:   75   -91576.8058   -91576.8019   -91576.9116  0.00016 -4.0562
   scf:   76   -91576.8058   -91576.8022   -91576.9119  0.00015 -4.0562
   scf:   77   -91576.8058   -91576.8025   -91576.9123  0.00013 -4.0563
   scf:   78   -91576.8058   -91576.8031   -91576.9128  0.00011 -4.0563
   scf:   79   -91576.8058   -91576.8035   -91576.9132  0.00009 -4.0563

SCF Convergence by dMax criterion
max |DM_out - DM_in|:     0.00009246
SCF cycle converged after   79 iterations

Using DM_out to compute the final energy and forces

siesta: E_KS(eV) =           -91576.8058

siesta: E_KS - E_eggbox =    -91576.8058

siesta: Atomic forces (eV/Ang):
     1   -0.121828   -0.136572    0.004485
     2   -0.008821   -0.169207   -0.068379
     3   -0.020861   -0.171425   -0.076768
     4    0.125158   -0.174022   -0.062133
     5   -0.130734    0.013687   -0.124634
     6    0.022229    0.011771   -0.149863
     7    0.011908    0.023060   -0.144982
     8    0.131798    0.018981   -0.061772
     9   -0.140030   -0.010224   -0.083398
    10   -0.012104   -0.014729   -0.156900
    11   -0.014768   -0.018590   -0.148308
    12    0.129759   -0.016335   -0.125766
    13   -0.126212    0.155635   -0.106671
    14    0.018419    0.160907   -0.098800
    15    0.015421    0.163093   -0.127834
    16    0.116317    0.126291   -0.047871
    17   -0.152926   -0.173944    0.220123
    18    0.022163   -0.174516    0.222926
    19    0.017250   -0.173817    0.239189
    20    0.161967   -0.136429    0.253788
    21   -0.185002    0.008495    0.182192
    22   -0.016311    0.024165    0.163652
    23   -0.016913    0.015959    0.177251
    24    0.153230    0.016256    0.171436
    25   -0.150245   -0.024197    0.171737
    26    0.018246   -0.005743    0.176037
    27    0.018254   -0.013825    0.186275
    28    0.171613   -0.006179    0.198696
    29   -0.171863    0.145991    0.150769
    30    0.001130    0.192630    0.122796
    31   -0.024539    0.187075    0.119753
    32    0.148301    0.175777    0.150642
    33   -0.148718   -0.104793    0.120002
    34   -0.015208   -0.124695    0.204969
    35   -0.022239   -0.141057    0.196606
    36    0.120766   -0.142022    0.168756
    37   -0.145294    0.028119    0.240598
    38    0.027894    0.025577    0.219359
    39    0.009157    0.029472    0.198807
    40    0.168004    0.043509    0.162161
    41   -0.185157    0.006220    0.185077
    42   -0.011512    0.007651    0.222816
    43   -0.014549    0.014990    0.215585
    44    0.135997    0.019782    0.203742
    45   -0.145506    0.167560    0.171704
    46    0.019771    0.166850    0.173166
    47   -0.000577    0.174675    0.182116
    48    0.169155    0.151581    0.212562
    49   -0.041179   -0.103624   -0.354451
    50   -0.102067   -0.113878   -0.245033
    51    0.003457   -0.157669   -0.296396
    52    0.119313   -0.148904   -0.356511
    53   -0.095099   -0.152948   -0.178830
    54   -0.004606   -0.030935   -0.219236
    55    0.018414   -0.000442   -0.270692
    56    0.096460   -0.048349   -0.301005
    57   -0.093570    0.004005   -0.307095
    58   -0.033938   -0.034073   -0.243041
    59   -0.007576   -0.021962   -0.244330
    60    0.121573   -0.012253   -0.289797
    61   -0.091054    0.108703   -0.284088
    62    0.012293    0.101042   -0.291138
    63    0.022891    0.127739   -0.255447
    64    0.106996    0.127536   -0.384715
    65    0.004238  -12.950717    1.238674
    66    8.654493    8.916925    1.522889
    67   -8.672786    4.047811   -2.642198
----------------------------------------
   Tot   -0.029756    0.001447    0.003254
----------------------------------------
   Max   12.950717
   Res    1.460307    sqrt( Sum f_i^2 / 3N )
----------------------------------------
   Max   12.950717    constrained

Stress-tensor-Voigt (kbar):       11.91       15.20        2.22       -0.45        0.19       -0.64
(Free)E + p*V (eV/cell)   -91620.3726
Target enthalpy (eV/cell)   -91576.9155

siesta: Eigenvalues (eV):
  ik is    eps
   1  1 -27.31 -14.70 -12.74 -11.64 -11.53 -11.44 -11.20 -11.14 -10.83 -10.72
        -10.51 -10.47 -10.44 -10.43 -10.41 -10.40 -10.39 -10.36 -10.32 -10.31
        -10.29 -10.28 -10.28 -10.26  -9.94  -9.92  -9.92  -9.90  -9.87  -9.84
         -9.82  -9.81  -9.80  -9.80  -9.79  -9.79  -9.76  -9.76  -9.74  -9.72
         -9.70  -9.69  -9.68  -9.67  -9.67  -9.65  -9.63  -9.60  -9.59  -9.58
         -9.56  -9.56  -9.55  -9.54  -9.53  -9.52  -9.51  -9.47  -9.38  -9.36
         -9.35  -9.35  -9.32  -9.32  -9.30  -9.24  -9.21  -9.20  -9.19  -9.18
         -9.14  -9.13  -9.07  -9.05  -9.04  -9.02  -9.01  -9.00  -8.99  -8.98
         -8.97  -8.96  -8.93  -8.91  -8.88  -8.86  -8.86  -8.85  -8.84  -8.83
         -8.81  -8.80  -8.78  -8.77  -8.76  -8.75  -8.73  -8.72  -8.70  -8.69
         -8.68  -8.67  -8.67  -8.65  -8.65  -8.64  -8.64  -8.63  -8.63  -8.62
         -8.60  -8.59  -8.58  -8.58  -8.56  -8.53  -8.52  -8.50  -8.49  -8.49
         -8.48  -8.45  -8.45  -8.43  -8.42  -8.42  -8.41  -8.40  -8.39  -8.38
         -8.37  -8.37  -8.35  -8.34  -8.33  -8.32  -8.27  -8.26  -8.24  -8.21
         -8.21  -8.20  -8.19  -8.18  -8.17  -8.17  -8.16  -8.14  -8.14  -8.13
         -8.12  -8.11  -8.10  -8.09  -8.08  -8.08  -8.08  -8.06  -8.05  -8.02
         -8.01  -8.00  -7.99  -7.98  -7.97  -7.96  -7.96  -7.95  -7.95  -7.93
         -7.92  -7.91  -7.90  -7.90  -7.89  -7.88  -7.87  -7.86  -7.86  -7.84
         -7.84  -7.84  -7.82  -7.79  -7.77  -7.76  -7.75  -7.73  -7.72  -7.71
         -7.70  -7.68  -7.65  -7.65  -7.63  -7.63  -7.59  -7.59  -7.59  -7.57
         -7.55  -7.54  -7.54  -7.53  -7.53  -7.52  -7.50  -7.49  -7.47  -7.45
         -7.43  -7.42  -7.42  -7.41  -7.40  -7.39  -7.38  -7.38  -7.37  -7.36
         -7.35  -7.34  -7.33  -7.33  -7.32  -7.31  -7.30  -7.29  -7.28  -7.27
         -7.27  -7.24  -7.23  -7.21  -7.20  -7.19  -7.18  -7.17  -7.16  -7.15
         -7.14  -7.13  -7.13  -7.12  -7.12  -7.10  -7.06  -7.05  -7.05  -7.03
         -7.03  -7.00  -6.99  -6.97  -6.96  -6.95  -6.95  -6.94  -6.92  -6.91
         -6.91  -6.90  -6.87  -6.84  -6.83  -6.82  -6.81  -6.80  -6.79  -6.78
         -6.77  -6.76  -6.74  -6.73  -6.68  -6.66  -6.63  -6.62  -6.62  -6.60
         -6.60  -6.59  -6.57  -6.56  -6.55  -6.55  -6.53  -6.52  -6.51  -6.51
         -6.49  -6.49  -6.48  -6.46  -6.46  -6.46  -6.45  -6.45  -6.44  -6.44
         -6.44  -6.43  -6.41  -6.39  -6.39  -6.38  -6.38  -6.37  -6.37  -6.36
         -6.36  -6.35  -6.34  -6.34  -6.33  -6.29  -6.27  -6.27  -6.27  -6.26
         -6.26  -6.25  -6.23  -6.22  -6.15  -6.15  -6.14  -6.13  -6.13  -6.10
         -6.09  -6.09  -6.09  -5.94  -5.94  -5.92  -5.92  -5.91  -5.89  -5.88
         -5.86  -5.85  -5.84  -5.83  -5.81  -5.72  -5.69  -5.27  -4.91  -4.89
         -4.86  -4.83  -4.50  -4.49  -4.21  -4.17  -3.92  -3.89  -3.85  -3.84
         -3.79  -3.79  -3.73  -3.49  -3.27  -3.25  -3.24  -3.05  -3.02  -3.01
         -2.98  -2.86  -2.81  -2.78  -2.77  -2.75  -2.58  -2.44  -2.43  -2.16
         -2.15  -2.13  -2.11  -1.36  -1.35  -1.29  -1.28  -1.20  -1.17  -1.14
         -1.06  -1.04  -1.04  -0.99  -0.83  -0.82  -0.79  -0.51  -0.43  -0.14
         -0.08   0.31   0.37   0.42   0.74   0.82   0.90   0.97   0.98   0.99
          1.04   1.16   1.20   1.23   1.46   1.48   1.56   1.63   1.84   1.86
          1.89   1.90   1.96   2.01   2.21   2.27   2.70   2.73   2.85   2.88
          2.95   2.98   3.01   3.05   3.41   3.50   3.56   3.64   3.78   3.79
          3.81   3.82   3.86   3.88   4.62   4.71   4.72   4.75   4.78   4.85
          4.91   4.92   4.95   4.96   4.99   5.10   5.23   5.29   5.63   5.78
          5.80   5.83   5.87   5.91   5.96   6.09   6.12   6.19   6.21   6.22
          6.23   6.36   6.40   6.45   6.47   6.48   6.56   6.67   6.72   6.79
          6.86   6.95   7.50   7.55   7.60   7.64   7.66   7.68   7.69   7.71
          7.73   7.77   7.80   7.83   7.95   8.04   8.29   8.41   8.50   8.58
          8.66   8.70   8.73   8.77   8.81   8.91   8.92   8.93   9.17   9.24
          9.30   9.35   9.45   9.62   9.69   9.75   9.79   9.85   9.88  10.43
         10.48  10.52  10.58  10.59  10.61  10.62  10.65  10.65  10.67  10.70
         10.70  10.72  10.74  10.81  10.88  11.13  11.27  11.35  11.47  11.53
         11.57  11.72  11.73  11.78  11.81  11.82  11.87  11.92  11.97  12.05
         12.35  12.46  12.48  12.49  12.52  12.58  12.59  12.63  12.70  12.94
         12.98  13.01  13.04  13.22  13.30  13.33  13.42  13.50  13.62  13.69
         13.76  14.08  14.62  14.65  14.68  14.72  14.79  14.82  14.85  14.96
         14.98  15.09  15.14  15.19  15.20  15.31  15.35  15.43  15.49  15.60
         15.85  16.03  16.08  16.18  16.30  16.44  16.49  16.52  16.57  16.61
         16.76  16.78  16.94  17.03  17.09  17.16  17.20  17.35  17.40  17.42
         17.64  17.78  17.90  18.05  18.07  18.25  18.29  18.43  18.45  18.47
         18.57  19.00  19.10  19.14  19.18  19.21  19.31  19.40  19.45  19.52
         19.76  19.91  19.94  19.96  20.02  20.06  20.10  20.15  20.36  20.60
         20.68  20.81  20.85  20.95  21.04  21.21  21.32  21.36  21.45  21.55
         21.77  21.92  21.95  22.03  22.08  22.11  22.14  22.17  22.20  22.33
         22.45  22.52  22.54  22.56  22.60  22.82  22.97  23.05  23.07  23.26
         23.31  23.40  23.64  23.73  23.77  23.93  23.94  23.95  23.99  24.02
         24.06  24.12  24.19  24.21  24.29  24.37  24.58  24.83  24.90  24.98
         24.99  25.03  25.09  25.18  25.20  25.23  25.32  25.34  25.38  25.62
         25.73  25.87  25.93  25.99  26.00  26.07  26.08  26.19  26.22  26.23
         26.32  26.34  26.37  26.42  26.44  26.49  26.56  26.60  26.70  26.70
         26.78  26.87  26.89  26.93  26.95  27.04  27.09  27.22  27.33  27.36
         27.45  27.52  27.58  27.66  27.70  27.73  27.79  27.86  27.97  28.12
         28.15  28.24  28.27  28.37  28.38  28.43  28.51  28.57  28.67  28.76
         28.81  28.83  28.91  28.99  29.00  29.02  29.12  29.13  29.23  29.27
         29.32  29.33  29.38  29.46  29.61  29.69  29.75  29.96  30.04  30.16
         30.24  30.27  30.28  30.35  30.41  30.43  30.54  30.62  30.72  30.76
         30.80  30.82  30.90  30.92  30.99  31.02  31.11  31.16  31.23  31.45
         31.54  31.57  31.62  31.74  31.91  31.93  32.01  32.05  32.08  32.20
         32.22  32.30  32.35  32.37  32.42  32.46  32.51  32.52  32.57  32.62
         32.65  32.70  32.71  32.76  32.82  32.99  33.05  33.09  33.16  33.18
         33.27  33.29  33.37  33.42  33.45  33.53  33.62  33.64  33.68  33.74
         33.78  33.85  33.92  34.11  34.17  34.23  34.27  34.32  34.39  34.42
         34.47  34.60  34.73  34.92  35.04  35.05  35.19  35.19  35.26  35.30
         35.38  35.52  35.59  35.67  35.72  35.73  35.77  35.83  35.91  35.99
         36.22  36.24  36.30  36.52  36.69  36.80  36.87  37.05  37.09  37.15
         37.33  37.42  37.46  37.62  37.64  37.73  37.78  37.85  37.98  38.05
         38.15  38.24  38.36  38.39  38.52  38.55  38.58  38.67  38.89  39.32
         39.34  39.62  39.77  40.00  40.04  40.15  40.26  40.32  40.36  40.38
         40.48  40.49  40.59  40.65  40.70  40.79  40.83  40.86  40.98  41.04
         41.09  41.23  41.38  41.60  41.67  41.76  41.81  41.94  42.03  42.16
         42.46  42.46  42.51  42.66  42.71  42.77  42.82  42.89  42.92  42.95
         43.13  43.34  43.55  43.64  43.69  43.72  43.78  43.82  43.87  43.96
         44.10  44.20  44.40  44.50  44.66  44.93  45.07  45.18  45.43  45.77
         45.80  45.93  46.00  46.02  46.25  46.34  46.52  46.63  46.66  46.89
         47.50  47.63  47.68  47.85  47.90  47.95  48.22  48.24  48.29  48.68
         48.75  49.07  49.72  49.85  50.28  50.31  50.70  54.76  61.23  61.81
         63.19  68.15  79.01
siesta: Fermi energy =      -4.056345 eV

siesta: Program's energy decomposition (eV):
siesta: Ebs     =     -5663.785234
siesta: Eions   =     74448.861464
siesta: Ena     =      3164.407213
siesta: Ekin    =     41814.009410
siesta: Enl     =    -17212.763231
siesta: DEna    =       601.874391
siesta: DUscf   =        55.409543
siesta: DUext   =         0.000000
siesta: Exc     =    -45550.881639
siesta: eta*DQ  =         0.000000
siesta: Emadel  =         0.000000
siesta: Emeta   =         0.000000
siesta: Emolmec =         0.000000
siesta: Ekinion =         0.000000
siesta: Eharris =    -91576.805778
siesta: Etot    =    -91576.805778
siesta: FreeEng =    -91576.915544

siesta: Final energy (eV):
siesta:  Band Struct. =   -5663.785234
siesta:       Kinetic =   41814.009410
siesta:       Hartree = 1195858.455339
siesta:    Ext. field =       0.000000
siesta:   Exch.-corr. =  -45550.881639
siesta:  Ion-electron =-2424187.061409
siesta:       Ion-ion = 1140488.672522
siesta:       Ekinion =       0.000000
siesta:         Total =  -91576.805778

siesta: Atomic forces (eV/Ang):
siesta:      1   -0.121828   -0.136572    0.004485
siesta:      2   -0.008821   -0.169207   -0.068379
siesta:      3   -0.020861   -0.171425   -0.076768
siesta:      4    0.125158   -0.174022   -0.062133
siesta:      5   -0.130734    0.013687   -0.124634
siesta:      6    0.022229    0.011771   -0.149863
siesta:      7    0.011908    0.023060   -0.144982
siesta:      8    0.131798    0.018981   -0.061772
siesta:      9   -0.140030   -0.010224   -0.083398
siesta:     10   -0.012104   -0.014729   -0.156900
siesta:     11   -0.014768   -0.018590   -0.148308
siesta:     12    0.129759   -0.016335   -0.125766
siesta:     13   -0.126212    0.155635   -0.106671
siesta:     14    0.018419    0.160907   -0.098800
siesta:     15    0.015421    0.163093   -0.127834
siesta:     16    0.116317    0.126291   -0.047871
siesta:     17   -0.152926   -0.173944    0.220123
siesta:     18    0.022163   -0.174516    0.222926
siesta:     19    0.017250   -0.173817    0.239189
siesta:     20    0.161967   -0.136429    0.253788
siesta:     21   -0.185002    0.008495    0.182192
siesta:     22   -0.016311    0.024165    0.163652
siesta:     23   -0.016913    0.015959    0.177251
siesta:     24    0.153230    0.016256    0.171436
siesta:     25   -0.150245   -0.024197    0.171737
siesta:     26    0.018246   -0.005743    0.176037
siesta:     27    0.018254   -0.013825    0.186275
siesta:     28    0.171613   -0.006179    0.198696
siesta:     29   -0.171863    0.145991    0.150769
siesta:     30    0.001130    0.192630    0.122796
siesta:     31   -0.024539    0.187075    0.119753
siesta:     32    0.148301    0.175777    0.150642
siesta:     33   -0.148718   -0.104793    0.120002
siesta:     34   -0.015208   -0.124695    0.204969
siesta:     35   -0.022239   -0.141057    0.196606
siesta:     36    0.120766   -0.142022    0.168756
siesta:     37   -0.145294    0.028119    0.240598
siesta:     38    0.027894    0.025577    0.219359
siesta:     39    0.009157    0.029472    0.198807
siesta:     40    0.168004    0.043509    0.162161
siesta:     41   -0.185157    0.006220    0.185077
siesta:     42   -0.011512    0.007651    0.222816
siesta:     43   -0.014549    0.014990    0.215585
siesta:     44    0.135997    0.019782    0.203742
siesta:     45   -0.145506    0.167560    0.171704
siesta:     46    0.019771    0.166850    0.173166
siesta:     47   -0.000577    0.174675    0.182116
siesta:     48    0.169155    0.151581    0.212562
siesta:     49   -0.041179   -0.103624   -0.354451
siesta:     50   -0.102067   -0.113878   -0.245033
siesta:     51    0.003457   -0.157669   -0.296396
siesta:     52    0.119313   -0.148904   -0.356511
siesta:     53   -0.095099   -0.152948   -0.178830
siesta:     54   -0.004606   -0.030935   -0.219236
siesta:     55    0.018414   -0.000442   -0.270692
siesta:     56    0.096460   -0.048349   -0.301005
siesta:     57   -0.093570    0.004005   -0.307095
siesta:     58   -0.033938   -0.034073   -0.243041
siesta:     59   -0.007576   -0.021962   -0.244330
siesta:     60    0.121573   -0.012253   -0.289797
siesta:     61   -0.091054    0.108703   -0.284088
siesta:     62    0.012293    0.101042   -0.291138
siesta:     63    0.022891    0.127739   -0.255447
siesta:     64    0.106996    0.127536   -0.384715
siesta:     65    0.004238  -12.950717    1.238674
siesta:     66    8.654493    8.916925    1.522889
siesta:     67   -8.672786    4.047811   -2.642198
siesta: ----------------------------------------
siesta:    Tot   -0.029756    0.001447    0.003254

siesta: Stress tensor (static) (eV/Ang**3):
siesta:     0.007434   -0.000282   -0.000397
siesta:    -0.000282    0.009488    0.000120
siesta:    -0.000397    0.000120    0.001386

siesta: Cell volume =       7121.044177 Ang**3

siesta: Pressure (static):
siesta:                Solid            Molecule  Units
siesta:          -0.00006647         -0.00009020  Ry/Bohr**3
siesta:          -0.00610263         -0.00828200  eV/Ang**3
siesta:          -9.77758903        -13.26937597  kBar
(Free)E+ p_basis*V_orbitals  =      -91504.238348
(Free)Eharris+ p_basis*V_orbitals  =      -91504.238348

siesta: Electric dipole (a.u.)  =    0.000000    0.000000    1.289410
siesta: Electric dipole (Debye) =    0.000000    0.000000    3.277355
>> End of run:  10-APR-2024   3:04:03
Job completed
