SystemName     geometry-0                                                                      
SystemLabel     geometry-0                                                                      
XML.Write              T     # default value
XML.AbortOnErrors              F     # default value
XML.AbortOnWarnings              F     # default value
timer_report_threshold          0.000000000         # default value
UseTreeTimer              F     # default value
alloc_report_level         0     # default value
alloc_report_threshold          0.000000000         # default value
xc.functional     GGA                                                                             
xc.authors     PBE                                                                             
MM.Cutoff          30.00000000     Bohr     # default value
MM.UnitsEnergy     eV     # default value
MM.UnitsDistance     Ang     # default value
WriteIonPlotFiles              F     # default value
Atom.Debug.KB.Generation              F     # default value
KB.New.Reference.Orbitals              F     # default value
user-basis              F     # default value
user-basis-netcdf              F     # default value
ReparametrizePseudos              F     # default value
Restricted.Radial.Grid              T     # default value
Rmax.Radial.Grid          0.000000000         # default value
PAO.BasisSize     standard            # default value
PAO.BasisType     split          # default value
PAO.SoftDefault              F     # default value
PAO.SoftInnerRadius         0.9000000000         # default value
PAO.SoftPotential          40.00000000         # default value
PAO.SplitNorm         0.1500000000         # default value
PAO.SplitNormH         -1.000000000         # default value
Number_of_species              5
%block Chemical_species_label
     1 1 H.1
     2 8 O.2
     3 79 Au.gga.3
     4 79 Au.gga.4
     5 79 Au.gga.5
%endblock Chemical_species_label
%block PAO.BasisSizes
     Au.gga.3	DZP
%endblock PAO.BasisSizes
%block PAO.Basis
 H.1 2 0.46527
             n=1 0 2 E 99.93138 2.59932
             4.20357 1.84463
             n=2 1 1 E 24.56504 2.20231
 (Backspace to) |            n=2 1 1 E 24.56504 2.20231|
             n=2 1 1 E 24.56504 2.20231
             3.52816
 O.2 3 -0.24233
 (Backspace to) |O.2 3 -0.24233|
 O.2 3 -0.24233
             n=2 0 2 E 23.36061 3.39721
             4.50769 2.64066
             n=2 1 2 E 2.78334 5.14253
 (Backspace to) |            n=2 1 2 E 2.78334 5.14253|
             n=2 1 2 E 2.78334 5.14253
             6.14996 2.59356
             n=3 2 1 E 63.98188 0.16104
 (Backspace to) |            n=3 2 1 E 63.98188 0.16104|
             n=3 2 1 E 63.98188 0.16104
             3.54403
 Au.gga.4 2
 (Backspace to) |Au.gga.4 2|
 Au.gga.4 2
             n=6 0 2 P 1
             7.24700 5.71500
             n=5 2 2
 (Backspace to) |            n=5 2 2|
             n=5 2 2
             5.10700 2.83800
 Au.gga.5 2
 (Backspace to) |Au.gga.5 2|
 Au.gga.5 2
             n=6 0 2 P 1
             9.07500 5.78700
             n=5 2 2
 (Backspace to) |            n=5 2 2|
             n=5 2 2
             6.55700 2.87400
%endblock PAO.Basis
%endblock PAO.Basis
FilterCutoff          0.000000000     Ry     # default value
FilterTol          0.000000000     Ry     # default value
KB.Rmax          6.000000000     Bohr     # default value
PAO.EnergyShift         0.7349798845E-02         Ry
# above item originally: PAO.EnergyShift         0.1000000000     eV        
PAO.SplitTailNorm              F     # default value
PAO.FixSplitTable              F     # default value
PAO.NewSplitCode              F     # default value
PAO.Filter              F     # default value
PAO.Filter              F     # default value
PAO.Filter              F     # default value
PAO.OldStylePolorbs              T     # default value
PAO.SplitTailNorm              F     # default value
PAO.FixSplitTable              F     # default value
PAO.NewSplitCode              F     # default value
Vna.Filter              F     # default value
FilterCutoff          0.000000000     Ry     # default value
FilterTol          0.000000000     Ry     # default value
KB.Rmax          6.000000000     Bohr     # default value
PAO.EnergyShift         0.7349798845E-02         Ry
# above item originally: PAO.EnergyShift         0.1000000000     eV        
PAO.SplitTailNorm              F     # default value
PAO.FixSplitTable              F     # default value
PAO.NewSplitCode              F     # default value
PAO.Filter              F     # default value
PAO.Filter              F     # default value
PAO.Filter              F     # default value
PAO.Filter              F     # default value
PAO.Filter              F     # default value
PAO.OldStylePolorbs              T     # default value
PAO.SplitTailNorm              F     # default value
PAO.FixSplitTable              F     # default value
PAO.NewSplitCode              F     # default value
Vna.Filter              F     # default value
PCC.Filter              F     # default value
FilterCutoff          0.000000000     Ry     # default value
FilterTol          0.000000000     Ry     # default value
KB.Rmax          6.000000000     Bohr     # default value
PAO.EnergyShift         0.7349798845E-02         Ry
# above item originally: PAO.EnergyShift         0.1000000000     eV        
PAO.SplitTailNorm              F     # default value
PAO.FixSplitTable              F     # default value
PAO.NewSplitCode              F     # default value
PAO.Filter              F     # default value
PAO.Keep.Findp.Bug              F     # default value
PAO.Filter              F     # default value
PAO.Filter              F     # default value
PAO.Filter              F     # default value
PAO.OldStylePolorbs              T     # default value
PAO.SplitTailNorm              F     # default value
PAO.FixSplitTable              F     # default value
PAO.NewSplitCode              F     # default value
PAO.Filter              F     # default value
Vna.Filter              F     # default value
PCC.Filter              F     # default value
FilterCutoff          0.000000000     Ry     # default value
FilterTol          0.000000000     Ry     # default value
KB.Rmax          6.000000000     Bohr     # default value
PAO.EnergyShift         0.7349798845E-02         Ry
# above item originally: PAO.EnergyShift         0.1000000000     eV        
PAO.SplitTailNorm              F     # default value
PAO.FixSplitTable              F     # default value
PAO.NewSplitCode              F     # default value
PAO.Filter              F     # default value
PAO.Filter              F     # default value
PAO.Filter              F     # default value
PAO.Filter              F     # default value
PAO.OldStylePolorbs              T     # default value
PAO.SplitTailNorm              F     # default value
PAO.FixSplitTable              F     # default value
PAO.NewSplitCode              F     # default value
PAO.Filter              F     # default value
Vna.Filter              F     # default value
PCC.Filter              F     # default value
FilterCutoff          0.000000000     Ry     # default value
FilterTol          0.000000000     Ry     # default value
KB.Rmax          6.000000000     Bohr     # default value
PAO.EnergyShift         0.7349798845E-02         Ry
# above item originally: PAO.EnergyShift         0.1000000000     eV        
PAO.SplitTailNorm              F     # default value
PAO.FixSplitTable              F     # default value
PAO.NewSplitCode              F     # default value
PAO.Filter              F     # default value
PAO.Filter              F     # default value
PAO.Filter              F     # default value
PAO.Filter              F     # default value
PAO.OldStylePolorbs              T     # default value
PAO.SplitTailNorm              F     # default value
PAO.FixSplitTable              F     # default value
PAO.NewSplitCode              F     # default value
PAO.Filter              F     # default value
Vna.Filter              F     # default value
PCC.Filter              F     # default value
PAO.BasisType     split          # default value
Atom-Setup-Only              F     # default value
UseStructFile              F     # default value
MD.UseStructFile              F     # default value
LatticeConstant          1.889726878           Bohr
# above item originally: LatticeConstant          1.000000000     Ang       
%block LatticeVectors
     11.975725345373620     0.000000000000000     0.000000000000000
     0.000000000000000     10.371282377926580     0.000000000000000
     0.000000000000000     0.000000000000000     57.333623994331909
AtomicCoordinatesFormat     Ang                                                                             
NumberOfAtoms             67
ZM.UnitsLength     Bohr           # default value
ZM.UnitsAngle     rad            # default value
ZM.ForceTolLength         0.1555740000E-02 Ry/Bohr     # default value
ZM.ForceTolAngle         0.3565490000E-02 Ry/rad     # default value
ZM.MaxDisplLength         0.2000000000     Bohr     # default value
ZM.MaxDisplAngle         0.3000000000E-02 rad     # default value
ZM.CalcAllForces              F     # default value
%block AtomicCoordinatesAndAtomicSpecies
     -0.003534062     -0.111506736     24.821745202 5
      2.961090267     -0.118395778     24.801749891 5
      5.922957078     -0.117854584     24.851778330 5
      8.900126314     -0.110918715     24.865687406 5
      1.478359511      2.455027947     24.797628087 5
      4.447327166      2.455474663     24.808635119 5
      7.419075604      2.455645544     24.874589131 5
     10.385294403      2.460294499     24.822449782 5
     -0.006739555      5.031249515     24.807179791 5
      2.962259040      5.033303887     24.766407956 5
      5.925041685      5.030962258     24.843579392 5
      8.904060114      5.025387138     24.889597777 5
      1.483461676      7.602608942     24.800473770 5
      4.440822776      7.602742088     24.787091765 5
      7.401738201      7.601781238     24.904494285 5
     10.384927704      7.599891474     24.852631648 5
      1.470178760      0.802004220     27.352480108 5
      4.440249813      0.797463047     27.369173074 5
      7.408210055      0.803986564     27.411249123 5
     10.378825688      0.814070444     27.371155296 5
     -0.018162037      3.365742100     27.331347597 5
      2.966401901      3.378225339     27.306471585 5
      5.930162585      3.375644027     27.375725182 5
      8.889222542      3.377627226     27.441829141 5
      1.475435904      5.960651994     27.314291105 5
      4.437677088      5.957188664     27.352801467 5
      7.406919801      5.940563939     27.425995683 5
     10.391960545      5.938517489     27.404776662 5
      0.013098828      8.511423669     27.346585250 5
      2.949379246      8.523372593     27.370913947 5
      5.911508853      8.518136349     27.417721219 5
      8.889398727      8.514329781     27.388020220 5
     -0.020934792      1.699769385     29.843652076 3
      2.954704743      1.698157756     29.790777274 3
      5.933621592      1.694172622     29.858385641 3
      8.904622046      1.674953929     29.919576721 3
      1.469051769      4.301392286     29.731265574 3
      4.444033596      4.277288734     29.810453381 3
      7.409919308      4.244288951     29.938174258 3
     10.374763111      4.250369597     29.886531142 3
     -0.026025016      6.837370539     29.846053780 3
      2.968424472      6.849583462     29.833089143 3
      5.930231616      6.828542432     29.898449159 3
      8.890372001      6.809995496     29.912850204 3
      1.457938696      9.414012310     29.864139516 3
      4.455824546      9.413786910     29.861567732 3
      7.418654377      9.390997115     29.908169821 3
     10.352214139      9.382709724     29.768948601 3
     -0.231266147     -0.029287318     32.301179831 3
      2.972933640      0.091731680     32.358620947 3
      5.910765998      0.104016742     32.553921374 3
      8.791380359      0.065854962     32.638269631 3
      1.543588532      2.805684960     32.235498777 3
      4.486377172      2.688923582     32.434771485 3
      7.423702003      2.631409171     32.608368479 3
     10.403032050      2.622937287     32.579834386 3
     -0.082433863      5.221282225     32.472665742 3
      3.014521739      5.298946773     32.456722811 3
      5.955379691      5.234105482     32.561692044 3
      8.869862667      5.180185820     32.629864910 3
      1.417255057      7.781172050     32.425742897 3
      4.411617579      7.843743712     32.543421630 3
      7.360055503      7.788499506     32.566500334 3
     10.295294741      7.735280167     32.593097891 3
      0.981059928      1.250686620     34.719288643 2
      1.304044376      1.899329076     35.174241864 1
      0.204662433      1.515529342     34.520863090 1
UseSaveData              F
MD.UseSaveXV              F
MD.UseSaveZM              F     # default value
WriteCoorInitial              T     # default value
MD.TypeOfRun     CG                                                                              
MaxBondDistance          6.000000000     Bohr     # default value
Output-Structure-Only              F     # default value
WriteCoorXmol              F
#:physical? MaxWalltime              F
MaxWalltime         0.1797693135+309     # default value
#:physical? MaxWalltime.Slack              F
MaxWalltime.Slack          5.000000000         # default value
SpinPolarized              F     # default value
NonCollinearSpin              F     # default value
HSetupOnly              F     # default value
LongOutput              F     # default value
WriteDenchar              F     # default value
WriteMullikenPop              0
WriteHirshfeldPop              F
WriteVoronoiPop              F
PartialChargesAtEveryGeometry              F     # default value
PartialChargesAtEveryScfStep              F     # default value
MeshCutoff          699.9937475             Ry
# above item originally: MeshCutoff          9523.985109     eV        
NetCharge          0.000000000         # default value
MinSCFIterations              0
MaxSCFIterations            500
SCFMustConverge              T
MixHamiltonian              F     # default value
TS.MixH              F     # default value
MixCharge              F     # default value
Compat-pre-v4-DM-H              F     # default value
SCF.MixAfterConvergence              F     # default value
SCF.Recompute-H-After-Scf              F     # default value
DM.NumberPulay              3
DM.NumberBroyden         0     # default value
DM.FIRE.Mixing              F     # default value
DM.MixSCF1              F     # default value
DM.PulayOnFile              F     # default value
DM.Pulay.Avoid.First.After.Kick              F     # default value
DM.MixingWeight         0.3000000000E-01
DM.OccupancyTolerance         0.1000000000E-11     # default value
DM.NumberKick         0     # default value
DM.KickMixingWeight         0.5000000000         # default value
DM.Tolerance         0.1000000000E-03
DM.RequireEnergyConvergence              F     # default value
DM.EnergyTolerance         0.7349806700E-06 Ry     # default value
DM.RequireHarrisConvergence              F     # default value
DM.HarrisTolerance         0.7349806700E-06 Ry     # default value
MonitorForcesInSCF              F     # default value
UseSaveData              F
DM.UseSaveDM              F
NeglNonOverlapInt              F     # default value
SolutionMethod     diagon                                                                          
Diag.DivideAndConquer              T     # default value
Diag.Memory          1.000000000         # default value
ElectronicTemperature         0.3674899422E-02         Ry
# above item originally: ElectronicTemperature          50.00000000     meV       
FixSpin              F     # default value
ON.MaxNumIter      1000     # default value
ON.etol         0.1000000000E-07     # default value
ON.eta          0.000000000     Ry     # default value
ON.eta_alpha          0.000000000     Ry     # default value
ON.eta_beta          0.000000000     Ry     # default value
On.RcLWF          9.500000000     Bohr     # default value
ON.UseSaveLWF              F     # default value
ON.functional     kim     # default value
ON.ChemicalPotentialUse              F     # default value
ON.ChemicalPotential              F     # default value
ON.ChemicalPotentialRc          9.500000000     Bohr     # default value
ON.ChemicalPotentialTemperature         0.5000000000E-01 Ry     # default value
ON.ChemicalPotentialOrder       100     # default value
MD.VariableCell              F     # default value
compat-pre-v4-dynamics              F     # default value
MD.TypeOfRun     CG                                                                              
MD.UseSaveCG              F     # default value
Optim.Broyden              F     # default value
MD.NumCGsteps         0     # default value
MD.MaxCGDispl         0.2000000000     Bohr     # default value
MD.MaxForceTol         0.1555739508E-02    Ry/Bohr
# above item originally: MD.MaxForceTol         0.4000000000E-01 eV/Ang    
MD.MaxStressTol         0.6797730000E-04 Ry/Bohr**3     # default value
GeometryMustConverge              F     # default value
MD.InitialTimeStep         1     # default value
MD.FinalTimeStep         1     # default value
MD.LengthTimeStep          1.000000000     fs     # default value
MD.Quench              F     # default value
MD.FireQuench              F     # default value
MD.InitialTemperature          0.000000000     K     # default value
MD.TargetTemperature          0.000000000     K     # default value
MD.TargetPressure          0.000000000     Ry/Bohr**3     # default value
MD.NoseMass          100.0000000     Ry*fs**2     # default value
MD.ParrinelloRahmanMass          100.0000000     Ry*fs**2     # default value
MD.AnnealOption     TemperatureAndPressure     # default value
MD.TauRelax          100.0000000     fs     # default value
MD.BulkModulus         0.6797730000E-02 Ry/Bohr**3     # default value
MD.FCDispl         0.4000000000E-01 Bohr     # default value
MD.FCfirst         1     # default value
MD.FClast        67     # default value
UseSpatialDecomposition              F     # default value
UseDomainDecomposition              F     # default value
Harris_functional              F     # default value
WriteKpoints              F
WriteForces              T
WriteDM              T     # default value
WriteDM.NetCDF              F     # default value
WriteDM.History.NetCDF              F     # default value
WriteDMHS.NetCDF              F     # default value
WriteDMHS.History.NetCDF              F     # default value
SCF.Read.Charge.NetCDF              F     # default value
SCF.Read.Deformation.Charge.NetCDF              F     # default value
SaveInitialChargeDensity              F     # default value
AnalyzeChargeDensityOnly              F     # default value
UseNewDiagk              F     # default value
WriteBands              F     # default value
WriteKbands              F
WriteEigenvalues              T
WriteCoorStep              F
WriteMDhistory              F
WriteMDXmol              T
UseSaveData              F
SaveHS              F
FixAuxiliaryCell              F     # default value
NaiveAuxiliaryCell              F     # default value
ReInitialiseDM              T     # default value
DM.AllowReuse              T     # default value
DM.AllowExtrapolation              T     # default value
DM.NormalizationTolerance         0.1000000000E-04     # default value
DM.NormalizeDuringSCF              T     # default value
MullikenInSCF              F     # default value
WarningMinimumAtomicDistance          1.000000000     Bohr     # default value
BornCharge              F     # default value
ChangeKgridInMD              F     # default value
Diag.ParallelOverK              F     # default value
MD.RelaxCellOnly              F     # default value
MD.RemoveIntraMolecularPressure              F     # default value
COOP.Write              F     # default value
SaveRho              F
SaveDeltaRho              F
SaveRhoXC              F     # default value
SaveElectrostaticPotential              F
SaveNeutralAtomPotential              F     # default value
SaveTotalPotential              F
SaveIonicCharge              F     # default value
SaveBaderCharge              F     # default value
SaveTotalCharge              F     # default value
Siesta2Wannier90.WriteMmn              F     # default value
Siesta2Wannier90.WriteUnk              F     # default value
Siesta2Wannier90.WriteAmn              F     # default value
Siesta2Wannier90.WriteEig              F     # default value
Siesta2Wannier90.NumberOfBandsUp         0     # default value
Siesta2Wannier90.NumberOfBandsDown         0     # default value
Siesta2Wannier90.NumberOfBands         0     # default value
RcSpatial          0.000000000     Bohr     # default value
ProcessorGridX         1     # default value
ProcessorGridY         1     # default value
ProcessorGridZ         1     # default value
processorY         4     # default value
blocksize        24     # default value
NumberOfEigenStates       983     # default value
TimeReversalSymmetryForKpoints              T     # default value
%block kgrid_Monkhorst_Pack
      1       0       0  0.0
      0       1       0  0.0
      0       0       1  0.0
LongOutput              F     # default value
WriteWaveFunctions              F
ForceAuxCell              F     # default value
AtomicCoordinatesFormat     Ang                                                                             
AtomCoorFormatOut     Ang                        # default value
LatticeConstant          1.889726878           Bohr
# above item originally: LatticeConstant          1.000000000     Ang       
%block DM.InitSpin
SCF.Pulay.Damping         -1.000000000         # default value
SCF.MixingWeightAfterPulay         0.5000000000         # default value
SCF.PulayMinimumHistory         2     # default value
SCF.PulayDmaxRegion          1000.000000         # default value
SCF.LinearMixingAfterPulay              F     # default value
SCF.Pulay.UseSVD              F     # default value
SCF.Pulay.DebugSVD              T     # default value
SCF.Pulay.RcondSVD         0.1000000000E-07     # default value
MeshSubDivisions         2     # default value
LatticeConstant          1.889726878           Bohr
# above item originally: LatticeConstant          1.000000000     Ang       
%block LatticeVectors
     11.975725345373620     0.000000000000000     0.000000000000000
     0.000000000000000     10.371282377926580     0.000000000000000
     0.000000000000000     0.000000000000000     57.333623994331909
PROCS_PER_NODE         4     # default value
PROCS_PER_NODE         4     # default value
DirectPhi              F     # default value
SimulateDoping              F     # default value
SlabDipoleCorrection              F     # default value
Diag.ParallelOverK              F     # default value
LatticeConstant          1.889726878           Bohr
# above item originally: LatticeConstant          1.000000000     Ang       
%block LatticeVectors
     11.975725345373620     0.000000000000000     0.000000000000000
     0.000000000000000     10.371282377926580     0.000000000000000
     0.000000000000000     0.000000000000000     57.333623994331909
Diag.AllInOne              F     # default value
Diag.DivideAndConquer              T     # default value
Diag.NoExpert              F     # default value
Diag.PreRotate              F     # default value
Diag.Use2D              T     # default value
SingleExcitation              F     # default value
OccupationFunction     FD     # default value
OccupationFunction     FD     # default value
SCF.Want.Variational.EKS              F     # default value
DM.FormattedFiles              F     # default value
DM.FormattedInput              F     # default value
DM.FormattedOutput              F     # default value
SCF.Want.Variational.EKS              F     # default value
SCF.Want.Variational.EKS              F     # default value
SCF.Want.Variational.EKS              F     # default value
SCF.Want.Variational.EKS              F     # default value
SCF.Want.Variational.EKS              F     # default value
SCF.Want.Variational.EKS              F     # default value
SCF.Want.Variational.EKS              F     # default value
SCF.Want.Variational.EKS              F     # default value
SCF.Want.Variational.EKS              F     # default value
SCF.Want.Variational.EKS              F     # default value
SCF.Want.Variational.EKS              F     # default value
SCF.Want.Variational.EKS              F     # default value
SCF.Want.Variational.EKS              F     # default value
SCF.Want.Variational.EKS              F     # default value
SCF.Want.Variational.EKS              F     # default value
SCF.Want.Variational.EKS              F     # default value
SCF.Want.Variational.EKS              F     # default value
SCF.Want.Variational.EKS              F     # default value
SCF.Want.Variational.EKS              F     # default value
SCF.Want.Variational.EKS              F     # default value
SCF.Want.Variational.EKS              F     # default value
SCF.Want.Variational.EKS              F     # default value
SCF.Want.Variational.EKS              F     # default value
SCF.Want.Variational.EKS              F     # default value
SCF.Want.Variational.EKS              F     # default value
SCF.Want.Variational.EKS              F     # default value
SCF.Want.Variational.EKS              F     # default value
SCF.Want.Variational.EKS              F     # default value
SCF.Want.Variational.EKS              F     # default value
SCF.Want.Variational.EKS              F     # default value
SCF.Want.Variational.EKS              F     # default value
SCF.Want.Variational.EKS              F     # default value
SCF.Want.Variational.EKS              F     # default value
SCF.Want.Variational.EKS              F     # default value
SCF.Want.Variational.EKS              F     # default value
SCF.Want.Variational.EKS              F     # default value
SCF.Want.Variational.EKS              F     # default value
SCF.Want.Variational.EKS              F     # default value
SCF.Want.Variational.EKS              F     # default value
SCF.Want.Variational.EKS              F     # default value
SCF.Want.Variational.EKS              F     # default value
SCF.Want.Variational.EKS              F     # default value
SCF.Want.Variational.EKS              F     # default value
SCF.Want.Variational.EKS              F     # default value
SCF.Want.Variational.EKS              F     # default value
SCF.Want.Variational.EKS              F     # default value
SCF.Want.Variational.EKS              F     # default value
SCF.Want.Variational.EKS              F     # default value
SCF.Want.Variational.EKS              F     # default value
SCF.Want.Variational.EKS              F     # default value
SCF.Want.Variational.EKS              F     # default value
SCF.Want.Variational.EKS              F     # default value
SCF.Want.Variational.EKS              F     # default value
SCF.Want.Variational.EKS              F     # default value
SCF.Want.Variational.EKS              F     # default value
SCF.Want.Variational.EKS              F     # default value
SCF.Want.Variational.EKS              F     # default value
SCF.Want.Variational.EKS              F     # default value
SCF.Want.Variational.EKS              F     # default value
SCF.Want.Variational.EKS              F     # default value
SCF.Want.Variational.EKS              F     # default value
SCF.Want.Variational.EKS              F     # default value
SCF.Want.Variational.EKS              F     # default value
SCF.Want.Variational.EKS              F     # default value
SCF.Want.Variational.EKS              F     # default value
SCF.Want.Variational.EKS              F     # default value
SCF.Want.Variational.EKS              F     # default value
SCF.Want.Variational.EKS              F     # default value
SCF.Want.Variational.EKS              F     # default value
SCF.Want.Variational.EKS              F     # default value
SCF.Want.Variational.EKS              F     # default value
SCF.Want.Variational.EKS              F     # default value
#:list? Grid.CellSampling              F
WriteCoorXmol              F
WriteCoorCerius              F     # default value
BasisPressure         0.2000000000     GPa     # default value
OpticalCalculation              F     # default value
